/*--------------------------------*- C++ -*----------------------------------*\
  =========                 |
  \\      /  F ield         | OpenFOAM: The Open Source CFD Toolbox
   \\    /   O peration     | Website:  https://openfoam.org
    \\  /    A nd           | Version:  8
     \\/     M anipulation  |
\*---------------------------------------------------------------------------*/
FoamFile
{
    version     2.0;
    format      ascii;
    class       volScalarField;
    location    "0.8";
    object      gradTy;
}
// * * * * * * * * * * * * * * * * * * * * * * * * * * * * * * * * * * * * * //

dimensions      [0 -1 0 1 0 0 0];

internalField   nonuniform List<scalar> 
2000
(
-0.342069
-0.624907
-0.628956
-0.488776
-0.317374
-0.178318
-0.0885163
-0.0393876
-0.0158851
-0.00585781
-0.00198946
-0.000626073
-0.000183499
-5.03116e-05
-1.29525e-05
-3.14109e-06
-7.19459e-07
-1.56028e-07
-3.20854e-08
-6.28664e-09
-1.1588e-09
-2.01228e-10
-4.16334e-11
-4.85723e-11
1.38778e-11
4.16334e-11
0
1.38778e-11
-6.93889e-12
0
0
0
0
-1.38778e-11
-6.93889e-12
0
0
0
0
0
-2.08167e-11
-2.77556e-11
1.38778e-11
-1.38778e-11
0
0
-1.38778e-11
0
-1.38778e-11
-6.93889e-12
0
0
0
-2.77556e-11
-6.93889e-12
0
0
0
0
0
0
-1.38778e-11
0
-1.38778e-11
0
0
1.38778e-11
-1.38778e-11
-6.93889e-12
0
-6.93889e-12
6.93889e-12
0
0
-6.93889e-12
6.93889e-12
-6.93889e-12
1.38778e-11
6.93889e-12
2.77556e-11
2.08167e-11
1.38778e-11
1.38778e-11
1.38778e-11
0
1.38778e-11
1.38778e-11
-6.93889e-12
-1.38778e-11
0
-3.46945e-11
1.38778e-11
1.38778e-11
0
0
6.93889e-12
2.77556e-11
0
0
-6.93889e-12
-0.488292
-0.941933
-0.968924
-0.761249
-0.497309
-0.280434
-0.139531
-0.0621854
-0.0251071
-0.00926588
-0.00314875
-0.0009913
-0.000290623
-7.96934e-05
-2.05168e-05
-4.97474e-06
-1.13912e-06
-2.46927e-07
-5.07372e-08
-9.9018e-09
-1.83187e-09
-3.19189e-10
-9.71445e-11
-9.02056e-11
-2.08167e-11
2.77556e-11
-6.93889e-12
1.38778e-11
0
0
0
0
0
-1.38778e-11
-1.38778e-11
0
-1.38778e-11
0
-1.38778e-11
0
0
-6.93889e-12
0
-1.38778e-11
0
-1.38778e-11
0
-4.85723e-11
0
-1.38778e-11
-2.08167e-11
-3.46945e-11
-2.08167e-11
-6.93889e-12
0
-2.08167e-11
1.38778e-11
-1.38778e-11
0
0
0
-1.38778e-11
-2.08167e-11
-1.38778e-11
0
0
0
-1.38778e-11
-1.38778e-11
1.38778e-11
1.38778e-11
0
0
0
0
0
6.93889e-12
0
6.93889e-12
1.38778e-11
-6.93889e-12
0
1.38778e-11
6.93889e-12
1.38778e-11
0
0
0
1.38778e-11
-3.46945e-11
-3.46945e-11
0
6.93889e-12
0
0
6.93889e-12
-6.93889e-12
0
0
-1.38778e-11
-0.211838
-0.469932
-0.510415
-0.412368
-0.273745
-0.155914
-0.0780931
-0.0349682
-0.0141679
-0.00524306
-0.00178565
-0.00056319
-0.000165364
-4.54022e-05
-1.17003e-05
-2.83904e-06
-6.50369e-07
-1.40957e-07
-2.89421e-08
-5.59969e-09
-1.04083e-09
-1.94289e-10
-4.16334e-11
-3.46945e-11
-1.38778e-11
-4.85723e-11
-1.38778e-11
2.08167e-11
0
0
0
0
1.38778e-11
1.38778e-11
0
1.38778e-11
-1.38778e-11
1.38778e-11
0
2.77556e-11
1.38778e-11
2.08167e-11
-1.38778e-11
0
1.38778e-11
0
0
-3.46945e-11
0
2.08167e-11
0
0
1.38778e-11
2.08167e-11
6.93889e-12
0
6.93889e-12
-1.38778e-11
0
-1.38778e-11
1.38778e-11
0
0
1.38778e-11
1.38778e-11
1.38778e-11
-1.38778e-11
0
-1.38778e-11
6.93889e-12
0
0
-6.93889e-12
1.38778e-11
1.38778e-11
0
1.38778e-11
-1.38778e-11
1.38778e-11
0
0
-1.38778e-11
0
0
1.38778e-11
-1.38778e-11
-1.38778e-11
6.93889e-12
3.46945e-11
0
2.08167e-11
6.93889e-12
1.38778e-11
1.38778e-11
0
2.77556e-11
6.93889e-12
1.38778e-11
1.38778e-11
-1.38778e-11
-0.0934361
-0.220085
-0.24723
-0.204065
-0.137409
-0.0790434
-0.0398808
-0.0179591
-0.00731022
-0.00271604
-0.000928303
-0.000293746
-8.65172e-05
-2.38251e-05
-6.15771e-06
-1.49843e-06
-3.44225e-07
-7.48082e-08
-1.54182e-08
-3.00454e-09
-5.6205e-10
-1.17961e-10
-1.38778e-11
2.77556e-11
3.46945e-11
0
1.38778e-11
0
-1.38778e-11
1.38778e-11
1.38778e-11
0
1.38778e-11
0
0
0
1.38778e-11
1.38778e-11
1.38778e-11
0
-1.38778e-11
0
1.38778e-11
1.38778e-11
0
0
-6.93889e-12
4.85723e-11
0
4.85723e-11
3.46945e-11
4.85723e-11
2.08167e-11
1.38778e-11
1.38778e-11
3.46945e-11
-6.93889e-12
1.38778e-11
0
-1.38778e-11
0
1.38778e-11
3.46945e-11
1.38778e-11
0
1.38778e-11
0
1.38778e-11
1.38778e-11
1.38778e-11
-1.38778e-11
1.38778e-11
-1.38778e-11
0
1.38778e-11
1.38778e-11
2.08167e-11
-6.93889e-12
1.38778e-11
2.08167e-11
6.93889e-11
3.46945e-11
-2.77556e-11
1.38778e-11
0
1.38778e-11
0
1.38778e-11
1.38778e-11
6.245e-11
1.38778e-11
1.38778e-11
1.38778e-11
0
-6.93889e-12
0
2.77556e-11
0
-2.08167e-11
0
-0.038737
-0.0940493
-0.108019
-0.0906388
-0.0617803
-0.0358675
-0.0182275
-0.00825653
-0.00337757
-0.00126041
-0.000432509
-0.00013737
-4.06031e-05
-1.12197e-05
-2.90954e-06
-7.10376e-07
-1.63737e-07
-3.57561e-08
-7.4038e-09
-1.47798e-09
-2.498e-10
0
0
2.08167e-11
2.08167e-11
-1.38778e-11
-4.85723e-11
-1.38778e-11
-6.93889e-12
1.38778e-11
0
0
-2.77556e-11
-1.38778e-11
-6.93889e-12
0
2.08167e-11
-1.38778e-11
-2.77556e-11
-2.77556e-11
-6.93889e-12
-1.38778e-11
0
-1.38778e-11
0
-1.38778e-11
0
6.93889e-12
1.38778e-11
0
0
-1.38778e-11
-1.38778e-11
-1.38778e-11
0
0
0
0
-2.08167e-11
0
-2.08167e-11
0
0
-1.38778e-11
0
-1.38778e-11
0
0
1.38778e-11
0
0
0
0
-2.08167e-11
-4.85723e-11
-1.38778e-11
1.38778e-11
0
0
-6.93889e-12
2.08167e-11
6.93889e-12
-2.08167e-11
-2.08167e-11
-1.38778e-11
-1.38778e-11
0
0
-3.46945e-11
6.93889e-12
0
-4.85723e-11
-2.77556e-11
-1.38778e-11
-1.38778e-11
-2.77556e-11
-2.77556e-11
0
-2.77556e-11
-2.08167e-11
-0.014854
-0.0366772
-0.0427731
-0.0363532
-0.0250363
-0.0146574
-0.00750042
-0.00341747
-0.00140521
-0.000526815
-0.00018155
-5.78951e-05
-1.71785e-05
-4.7647e-06
-1.24019e-06
-3.03903e-07
-7.03396e-08
-1.54043e-08
-3.22659e-09
-6.38378e-10
-1.45717e-10
1.38778e-11
4.85723e-11
1.38778e-11
0
-4.16334e-11
-6.93889e-11
-6.93889e-12
6.93889e-12
-1.38778e-11
-3.46945e-11
0
-6.93889e-12
0
0
-1.38778e-11
0
-1.38778e-11
0
0
-1.38778e-11
-2.08167e-11
0
0
0
-2.08167e-11
-3.46945e-11
0
-2.77556e-11
-4.85723e-11
-1.38778e-11
0
0
-1.38778e-11
-1.38778e-11
-1.38778e-11
-2.77556e-11
-1.38778e-11
0
-6.93889e-12
0
-1.38778e-11
-3.46945e-11
-1.38778e-11
0
-1.38778e-11
-6.93889e-12
0
0
-1.38778e-11
0
-1.38778e-11
-2.08167e-11
-3.46945e-11
-1.38778e-11
-6.93889e-12
-6.93889e-11
6.93889e-12
-3.46945e-11
-2.77556e-11
-3.46945e-11
1.38778e-11
3.46945e-11
-1.38778e-11
0
0
-3.46945e-11
-2.08167e-11
-1.38778e-11
-6.93889e-12
-2.77556e-11
-2.77556e-11
-4.16334e-11
0
-1.38778e-11
0
0
1.38778e-11
2.77556e-11
0
-0.0052439
-0.0130833
-0.0154274
-0.0132461
-0.00920336
-0.00542884
-0.00279611
-0.00128126
-0.000529518
-0.000199438
-6.90259e-05
-2.21012e-05
-6.58317e-06
-1.8327e-06
-4.78756e-07
-1.17781e-07
-2.7367e-08
-6.00214e-09
-1.26288e-09
-2.56739e-10
-6.93889e-11
1.38778e-11
5.55112e-11
2.77556e-11
-3.46945e-11
3.46945e-11
1.38778e-11
-2.77556e-11
3.46945e-11
-1.38778e-11
1.38778e-11
1.38778e-11
2.08167e-11
1.38778e-11
0
-6.93889e-12
-6.93889e-12
1.38778e-11
1.38778e-11
-2.08167e-11
-2.08167e-11
1.38778e-11
3.46945e-11
0
-1.38778e-11
1.38778e-11
6.93889e-12
2.77556e-11
1.38778e-11
-6.93889e-12
0
0
-6.93889e-12
0
-6.93889e-12
-6.93889e-12
0
1.38778e-11
1.38778e-11
6.93889e-12
6.93889e-12
0
0
1.38778e-11
-2.08167e-11
0
0
0
-1.38778e-11
-3.46945e-11
-6.93889e-12
0
2.08167e-11
6.93889e-12
3.46945e-11
6.93889e-12
-1.38778e-11
0
-2.77556e-11
-6.93889e-12
-3.46945e-11
-1.38778e-11
3.46945e-11
2.08167e-11
0
2.77556e-11
0
0
2.08167e-11
-2.77556e-11
0
4.16334e-11
6.93889e-12
0
1.38778e-11
0
0
0
6.93889e-12
0
-0.00170259
-0.00427721
-0.00508463
-0.00440023
-0.00307879
-0.00182704
-0.000945773
-0.000435205
-0.00018048
-6.81638e-05
-2.36416e-05
-7.58084e-06
-2.25991e-06
-6.29191e-07
-1.6423e-07
-4.03635e-08
-9.38832e-09
-2.08861e-09
-4.44089e-10
-1.17961e-10
-6.93889e-12
0
-1.38778e-11
0
1.38778e-11
4.16334e-11
2.08167e-11
-6.93889e-12
0
0
3.46945e-11
3.46945e-11
3.46945e-11
3.46945e-11
6.93889e-12
6.93889e-12
-1.38778e-11
3.46945e-11
1.38778e-11
5.55112e-11
2.08167e-11
3.46945e-11
2.08167e-11
4.85723e-11
0
5.55112e-11
4.85723e-11
0
3.46945e-11
6.93889e-12
0
0
3.46945e-11
1.38778e-11
3.46945e-11
0
3.46945e-11
1.38778e-11
2.08167e-11
0
1.38778e-11
1.38778e-11
2.08167e-11
-1.38778e-11
3.46945e-11
0
4.16334e-11
0
-1.38778e-11
1.38778e-11
-1.38778e-11
-2.08167e-11
3.46945e-11
3.46945e-11
1.38778e-11
0
2.77556e-11
1.38778e-11
0
-5.55112e-11
-2.08167e-11
-4.16334e-11
-2.08167e-11
0
-1.38778e-11
-2.77556e-11
3.46945e-11
2.08167e-11
3.46945e-11
2.77556e-11
6.245e-11
3.46945e-11
2.77556e-11
-1.38778e-11
2.08167e-11
1.38778e-11
0
0
0
-1.38778e-11
-0.000497289
-0.00125264
-0.00149171
-0.00129027
-0.00089955
-0.000529998
-0.000271297
-0.000122893
-4.99118e-05
-1.8351e-05
-6.15144e-06
-1.88943e-06
-5.33434e-07
-1.38549e-07
-3.30846e-08
-7.23727e-09
-1.45717e-09
-2.84495e-10
-7.63278e-11
-5.55112e-11
-4.85723e-11
-3.46945e-11
-5.55112e-11
-2.08167e-11
-1.38778e-11
-6.93889e-12
0
-2.77556e-11
-3.46945e-11
1.38778e-11
-1.38778e-11
-1.38778e-11
-1.38778e-11
-1.38778e-11
0
1.38778e-11
0
2.08167e-11
-2.77556e-11
2.77556e-11
2.08167e-11
-2.77556e-11
-6.93889e-12
-2.08167e-11
0
0
-2.08167e-11
-2.77556e-11
0
0
0
1.38778e-11
2.08167e-11
1.38778e-11
2.08167e-11
6.93889e-12
-2.08167e-11
0
2.08167e-11
1.38778e-11
1.38778e-11
0
3.46945e-11
0
2.08167e-11
0
1.38778e-11
-1.38778e-11
0
3.46945e-11
3.46945e-11
-6.93889e-12
-1.38778e-11
1.38778e-11
2.08167e-11
2.77556e-11
-2.77556e-11
-2.08167e-11
3.46945e-11
0
0
-2.08167e-11
-1.38778e-11
0
-2.08167e-11
-6.93889e-12
-6.93889e-12
2.08167e-11
1.38778e-11
3.46945e-11
2.08167e-11
4.85723e-11
3.46945e-11
3.46945e-11
-6.93889e-12
2.08167e-11
0
-1.38778e-11
0
3.46945e-11
-8.10105e-05
-0.000192367
-0.000200259
-0.000134418
-5.59541e-05
-3.54951e-06
1.75103e-05
1.899e-05
1.33464e-05
7.50557e-06
3.61561e-06
1.54225e-06
5.94164e-07
2.09534e-07
6.82995e-08
2.06987e-08
5.8703e-09
1.56819e-09
3.747e-10
6.93889e-11
0
-6.93889e-11
-5.55112e-11
-6.93889e-12
1.38778e-11
-1.38778e-11
3.46945e-11
-2.08167e-11
-2.08167e-11
0
0
-6.93889e-12
-3.46945e-11
-3.46945e-11
0
2.08167e-11
1.38778e-11
-6.93889e-12
-6.93889e-12
-2.77556e-11
0
1.38778e-11
-2.77556e-11
-2.77556e-11
0
0
-1.38778e-11
-6.93889e-12
0
2.77556e-11
2.77556e-11
0
-3.46945e-11
6.93889e-12
-3.46945e-11
0
-1.38778e-11
0
-4.16334e-11
0
-1.38778e-11
2.08167e-11
2.77556e-11
4.85723e-11
-3.46945e-11
0
-2.08167e-11
0
0
1.38778e-11
1.38778e-11
6.93889e-12
1.38778e-11
1.38778e-11
5.55112e-11
2.08167e-11
1.38778e-11
-1.38778e-11
0
6.245e-11
6.93889e-12
0
2.08167e-11
0
0
0
6.93889e-12
-6.93889e-12
-2.08167e-11
-3.46945e-11
1.38778e-11
2.77556e-11
6.93889e-12
1.38778e-11
6.93889e-12
-2.08167e-11
-6.93889e-12
-1.38778e-11
-6.93889e-12
0
0.000190545
0.000532108
0.000757603
0.000818204
0.00072616
0.000547478
0.000357984
0.000206244
0.000106057
4.92116e-05
2.07967e-05
8.06813e-06
2.89328e-06
9.64825e-07
3.00794e-07
8.8006e-08
2.43e-08
6.34215e-09
1.60288e-09
4.23273e-10
6.93889e-11
-4.85723e-11
-2.08167e-11
5.55112e-11
9.02056e-11
3.46945e-11
6.93889e-11
8.32667e-11
2.08167e-11
0
0
2.08167e-11
4.85723e-11
4.85723e-11
0
3.46945e-11
-1.38778e-11
6.93889e-12
6.93889e-12
-6.93889e-12
0
0
-2.08167e-11
4.85723e-11
4.85723e-11
2.08167e-11
4.85723e-11
6.93889e-12
3.46945e-11
0
4.16334e-11
1.38778e-11
0
-6.93889e-12
-1.38778e-11
1.38778e-11
1.38778e-11
-1.38778e-11
6.93889e-12
2.08167e-11
0
2.77556e-11
0
1.38778e-11
1.38778e-11
-6.93889e-12
-1.38778e-11
-6.93889e-12
1.38778e-11
2.08167e-11
-3.46945e-11
1.38778e-11
0
-2.77556e-11
0
0
-1.38778e-11
2.08167e-11
-6.245e-11
0
0
2.08167e-11
-3.46945e-11
-3.46945e-11
2.08167e-11
0
2.77556e-11
-3.46945e-11
-1.38778e-11
-4.85723e-11
-2.77556e-11
-6.245e-11
-4.16334e-11
-3.46945e-11
0
-3.46945e-11
0
0
0
-3.46945e-11
0.000763835
0.00210916
0.00294879
0.00312114
0.00271777
0.00201491
0.00129864
0.000739009
0.000376005
0.000172862
7.24551e-05
2.79036e-05
9.93981e-06
3.2943e-06
1.02101e-06
2.97304e-07
8.16777e-08
2.12816e-08
5.28744e-09
1.23512e-09
2.70617e-10
8.32667e-11
4.16334e-11
4.16334e-11
2.08167e-11
2.08167e-11
-1.38778e-11
2.77556e-11
0
0
-2.08167e-11
-2.08167e-11
0
0
-6.93889e-12
0
-1.38778e-11
0
1.38778e-11
-2.77556e-11
-6.93889e-12
-2.08167e-11
-1.38778e-11
-2.08167e-11
0
-3.46945e-11
2.08167e-11
0
-3.46945e-11
-2.77556e-11
-6.93889e-12
0
0
-2.77556e-11
1.38778e-11
0
0
-1.38778e-11
2.77556e-11
0
0
-1.38778e-11
-2.77556e-11
-3.46945e-11
6.93889e-12
0
-1.38778e-11
-2.77556e-11
-1.38778e-11
-1.38778e-11
6.93889e-12
6.93889e-12
-1.38778e-11
0
-6.245e-11
0
-2.08167e-11
1.38778e-11
2.77556e-11
2.77556e-11
-2.08167e-11
-3.46945e-11
-2.08167e-11
2.77556e-11
2.77556e-11
-2.77556e-11
0
6.93889e-12
1.38778e-11
-1.38778e-11
-2.08167e-11
-1.38778e-11
6.93889e-12
-2.08167e-11
0
2.08167e-11
6.93889e-12
-3.46945e-11
4.16334e-11
-6.93889e-12
0.00240874
0.00666818
0.00935294
0.00992196
0.00864636
0.00640671
0.00412287
0.00234098
0.00118792
0.000544526
0.000227531
8.73451e-05
3.10128e-05
1.02446e-05
3.16473e-06
9.18453e-07
2.51417e-07
6.51632e-08
1.60497e-08
3.74006e-09
9.02056e-10
2.35922e-10
4.85723e-11
-2.08167e-11
-5.55112e-11
-2.08167e-11
-4.16334e-11
-4.16334e-11
-6.93889e-12
-1.38778e-11
0
-2.77556e-11
-5.55112e-11
-6.93889e-11
0
-4.16334e-11
0
-4.16334e-11
1.38778e-11
0
0
0
0
-2.77556e-11
-5.55112e-11
-3.46945e-11
-3.46945e-11
-6.93889e-12
-4.85723e-11
-6.93889e-12
-4.85723e-11
-2.77556e-11
-2.08167e-11
0
-1.38778e-11
-1.38778e-11
0
0
-2.77556e-11
-3.46945e-11
-1.38778e-11
-2.08167e-11
-3.46945e-11
-3.46945e-11
-2.08167e-11
0
0
1.38778e-11
3.46945e-11
-6.93889e-12
1.38778e-11
0
0
0
-1.38778e-11
-2.08167e-11
5.55112e-11
2.08167e-11
4.85723e-11
0
0
-1.38778e-11
2.08167e-11
3.46945e-11
0
-6.93889e-12
0
1.38778e-11
-1.38778e-11
1.38778e-11
1.38778e-11
0
1.38778e-11
0
2.77556e-11
1.38778e-11
0
-6.93889e-12
1.38778e-11
3.46945e-11
0.00685357
0.0190646
0.0269113
0.0286931
0.0250776
0.0186012
0.0119662
0.00678561
0.00343671
0.00157167
0.000655025
0.000250761
8.87813e-05
2.92423e-05
9.00695e-06
2.60613e-06
7.11257e-07
1.83742e-07
4.50542e-08
1.05194e-08
2.3731e-09
4.92661e-10
6.93889e-11
-4.85723e-11
-9.02056e-11
-4.85723e-11
-3.46945e-11
-3.46945e-11
0
0
6.93889e-12
-3.46945e-11
-2.77556e-11
-4.16334e-11
0
-2.77556e-11
0
-4.85723e-11
-2.77556e-11
1.38778e-11
-3.46945e-11
-1.38778e-11
0
-4.16334e-11
-4.85723e-11
-4.16334e-11
-3.46945e-11
-2.77556e-11
-2.08167e-11
-1.38778e-11
-1.38778e-11
1.38778e-11
-3.46945e-11
1.38778e-11
1.38778e-11
0
0
1.38778e-11
1.38778e-11
0
1.38778e-11
-2.77556e-11
-6.93889e-12
6.93889e-12
-1.38778e-11
-2.77556e-11
0
2.08167e-11
2.08167e-11
-2.77556e-11
-5.55112e-11
0
-3.46945e-11
-6.93889e-12
-3.46945e-11
-1.38778e-11
2.77556e-11
1.38778e-11
0
-2.77556e-11
-1.38778e-11
3.46945e-11
-2.08167e-11
-2.77556e-11
-2.77556e-11
-2.08167e-11
-6.245e-11
-1.38778e-11
-2.08167e-11
0
-3.46945e-11
-1.38778e-11
-3.46945e-11
3.46945e-11
-2.77556e-11
-1.38778e-11
-6.93889e-12
2.08167e-11
-5.55112e-11
2.08167e-11
0.0175799
0.0492697
0.070216
0.075416
0.0661979
0.0491933
0.0316511
0.0179313
0.00906669
0.00413771
0.00172039
0.000656941
0.000231976
7.62014e-05
2.3407e-05
6.75432e-06
1.83836e-06
4.73621e-07
1.1588e-07
2.70339e-08
5.98133e-09
1.26288e-09
2.70617e-10
1.38778e-11
-2.08167e-11
-6.93889e-12
6.93889e-12
-2.08167e-11
-3.46945e-11
0
1.38778e-11
0
2.77556e-11
0
-3.46945e-11
0
0
0
-4.16334e-11
1.38778e-11
0
1.38778e-11
0
-2.08167e-11
1.38778e-11
-2.08167e-11
0
1.38778e-11
0
1.38778e-11
1.38778e-11
0
0
0
0
-2.08167e-11
0
0
0
-2.08167e-11
0
0
6.93889e-12
2.77556e-11
0
2.77556e-11
1.38778e-11
2.77556e-11
-2.77556e-11
-4.16334e-11
-2.08167e-11
1.38778e-11
-6.93889e-12
0
0
2.08167e-11
-2.77556e-11
-1.38778e-11
1.38778e-11
0
-2.77556e-11
1.38778e-11
0
0
1.38778e-11
0
-4.16334e-11
0
6.93889e-12
-1.38778e-11
-2.77556e-11
1.38778e-11
-1.38778e-11
-1.38778e-11
-6.93889e-12
1.38778e-11
6.93889e-12
1.38778e-11
-3.46945e-11
-1.38778e-11
0.0401448
0.113917
0.16479
0.178895
0.157989
0.117733
0.0758022
0.0429186
0.0216714
0.00987178
0.0040958
0.00156042
0.000549688
0.000180125
5.51931e-05
1.58872e-05
4.31346e-06
1.10861e-06
2.70596e-07
6.29011e-08
1.39264e-08
2.95597e-09
5.89806e-10
1.249e-10
6.245e-11
6.93889e-12
-6.93889e-12
0
2.08167e-11
-6.93889e-12
1.38778e-11
3.46945e-11
0
2.77556e-11
-3.46945e-11
-6.93889e-12
0
1.38778e-11
2.08167e-11
-1.38778e-11
6.93889e-12
3.46945e-11
-6.93889e-12
2.77556e-11
3.46945e-11
5.55112e-11
1.38778e-11
2.08167e-11
1.38778e-11
0
0
-2.08167e-11
2.08167e-11
-2.08167e-11
-2.08167e-11
-2.08167e-11
-1.38778e-11
-2.08167e-11
-2.08167e-11
-1.38778e-11
-2.08167e-11
-2.08167e-11
-6.93889e-12
-2.77556e-11
-6.93889e-12
0
-1.38778e-11
-3.46945e-11
-2.77556e-11
0
4.16334e-11
1.38778e-11
6.93889e-12
0
3.46945e-11
0
0
-2.08167e-11
-2.77556e-11
-6.93889e-12
2.08167e-11
0
1.38778e-11
0
0
2.08167e-11
4.16334e-11
-4.16334e-11
-2.08167e-11
0
3.46945e-11
-2.08167e-11
1.38778e-11
0
6.93889e-12
-1.38778e-11
1.38778e-11
0
6.93889e-12
1.38778e-11
0.080036
0.232383
0.344691
0.380207
0.338641
0.253345
0.163324
0.092453
0.0466336
0.0212096
0.00878364
0.00333968
0.001174
0.000383881
0.000117374
3.37131e-05
9.13373e-06
2.3426e-06
5.70599e-07
1.32332e-07
2.9296e-08
6.18255e-09
1.22818e-09
2.498e-10
6.245e-11
2.77556e-11
-3.46945e-11
3.46945e-11
1.38778e-11
-3.46945e-11
-2.77556e-11
0
-1.38778e-11
-2.77556e-11
2.08167e-11
0
0
-2.77556e-11
4.85723e-11
-1.38778e-11
-6.93889e-12
-3.46945e-11
-2.77556e-11
2.77556e-11
-1.38778e-11
2.08167e-11
0
1.38778e-11
-1.38778e-11
-1.38778e-11
-1.38778e-11
-1.38778e-11
1.38778e-11
-1.38778e-11
0
6.93889e-12
-6.93889e-12
6.93889e-12
-1.38778e-11
2.77556e-11
-1.38778e-11
0
-2.77556e-11
-6.93889e-12
0
-1.38778e-11
-6.93889e-12
-4.85723e-11
-6.93889e-12
4.16334e-11
3.46945e-11
-1.38778e-11
0
0
2.08167e-11
-3.46945e-11
1.38778e-11
-2.08167e-11
-3.46945e-11
-5.55112e-11
2.08167e-11
-2.08167e-11
-2.77556e-11
0
-3.46945e-11
0
3.46945e-11
-1.38778e-11
-2.08167e-11
1.38778e-11
0
-2.77556e-11
-1.38778e-11
0
0
-6.93889e-12
-1.38778e-11
0
1.38778e-11
0
0.134338
0.409786
0.636696
0.719586
0.648376
0.487553
0.314895
0.178283
0.0898601
0.0408192
0.0168792
0.00640712
0.0022484
0.000733893
0.000223994
6.42237e-05
1.73695e-05
4.44728e-06
1.0815e-06
2.50508e-07
5.54556e-08
1.17545e-08
2.38698e-09
4.78784e-10
7.63278e-11
6.93889e-12
0
3.46945e-11
-1.38778e-11
6.93889e-12
0
0
1.38778e-11
-1.38778e-11
3.46945e-11
6.93889e-12
-3.46945e-11
1.38778e-11
-2.77556e-11
1.38778e-11
2.08167e-11
0
1.38778e-11
6.93889e-12
2.08167e-11
-1.38778e-11
0
-1.38778e-11
2.08167e-11
2.08167e-11
1.38778e-11
1.38778e-11
0
1.38778e-11
6.93889e-12
2.77556e-11
0
1.38778e-11
1.38778e-11
-1.38778e-11
1.38778e-11
1.38778e-11
2.77556e-11
6.93889e-12
6.93889e-12
1.38778e-11
0
2.08167e-11
0
0
1.38778e-11
-1.38778e-11
1.38778e-11
6.93889e-12
0
1.38778e-11
0
0
1.38778e-11
6.93889e-12
1.38778e-11
0
1.38778e-11
2.77556e-11
0
0
-6.93889e-12
3.46945e-11
2.08167e-11
-1.38778e-11
-2.08167e-11
2.77556e-11
0
-1.38778e-11
0
6.93889e-12
0
6.93889e-12
1.38778e-11
-1.38778e-11
0.171871
0.601337
1.03099
1.20926
1.1059
0.836661
0.541594
0.306775
0.154559
0.0701467
0.0289739
0.0109843
0.00384961
0.00125487
0.000382494
0.000109526
2.95836e-05
7.56508e-06
1.83748e-06
4.25153e-07
9.39665e-08
1.99285e-08
4.07313e-09
7.84095e-10
1.17961e-10
-6.93889e-12
1.38778e-11
6.93889e-12
1.38778e-11
2.77556e-11
-2.08167e-11
0
6.93889e-12
6.93889e-11
1.38778e-11
-6.93889e-12
-6.93889e-12
2.08167e-11
0
0
1.38778e-11
3.46945e-11
2.08167e-11
1.38778e-11
0
-6.93889e-12
0
0
0
2.77556e-11
0
0
-2.77556e-11
6.93889e-12
-6.93889e-12
2.08167e-11
2.08167e-11
-2.08167e-11
0
-2.08167e-11
0
2.08167e-11
6.93889e-12
-6.93889e-12
-6.93889e-12
0
0
4.85723e-11
6.93889e-12
0
-1.38778e-11
0
-2.08167e-11
0
-2.08167e-11
4.85723e-11
1.38778e-11
6.93889e-12
2.08167e-11
5.55112e-11
6.93889e-12
-1.38778e-11
1.38778e-11
0
2.08167e-11
4.16334e-11
2.08167e-11
1.38778e-11
3.46945e-11
-6.93889e-12
-2.08167e-11
0
-6.93889e-12
2.77556e-11
1.38778e-11
0
0
0
6.93889e-12
0
0.0899664
0.345252
0.624568
0.745212
0.685841
0.520158
0.337024
0.190942
0.0961885
0.0436425
0.0180196
0.00682853
0.00239209
0.000779404
0.000237462
6.79664e-05
1.83502e-05
4.69053e-06
1.1388e-06
2.6338e-07
5.81479e-08
1.23027e-08
2.498e-09
4.64906e-10
5.55112e-11
6.93889e-12
0
1.38778e-11
0
-1.38778e-11
-2.08167e-11
0
0
3.46945e-11
0
-1.38778e-11
0
0
1.38778e-11
-1.38778e-11
0
0
0
1.38778e-11
-6.93889e-12
-1.38778e-11
0
2.77556e-11
-6.93889e-12
0
-1.38778e-11
-1.38778e-11
-6.93889e-12
0
-1.38778e-11
1.38778e-11
2.08167e-11
-1.38778e-11
-1.38778e-11
0
-1.38778e-11
1.38778e-11
0
-1.38778e-11
-1.38778e-11
-1.38778e-11
-1.38778e-11
1.38778e-11
1.38778e-11
0
-1.38778e-11
0
-2.08167e-11
0
-1.38778e-11
3.46945e-11
2.08167e-11
2.77556e-11
0
0
0
-3.46945e-11
-1.38778e-11
0
0
4.85723e-11
1.38778e-11
6.93889e-12
1.38778e-11
0
-2.08167e-11
-1.38778e-11
-2.08167e-11
6.93889e-12
-1.38778e-11
0
0
0
0
0
)
;

boundaryField
{
    top
    {
        type            calculated;
        value           uniform 0;
    }
    bottom
    {
        type            calculated;
        value           uniform 0;
    }
    left
    {
        type            calculated;
        value           nonuniform List<scalar> 
20
(
-0.342069
-0.488292
-0.211838
-0.0934361
-0.038737
-0.014854
-0.0052439
-0.00170259
-0.000497289
-8.10105e-05
0.000190545
0.000763835
0.00240874
0.00685357
0.0175799
0.0401448
0.080036
0.134338
0.171871
0.0899664
)
;
    }
    right
    {
        type            calculated;
        value           nonuniform List<scalar> 
20
(
-6.93889e-12
-1.38778e-11
-1.38778e-11
0
-2.08167e-11
0
0
-1.38778e-11
3.46945e-11
0
-3.46945e-11
-6.93889e-12
3.46945e-11
2.08167e-11
-1.38778e-11
1.38778e-11
0
-1.38778e-11
0
0
)
;
    }
    frontAndBack
    {
        type            empty;
    }
}


// ************************************************************************* //
