/*--------------------------------*- C++ -*----------------------------------*\
  =========                 |
  \\      /  F ield         | OpenFOAM: The Open Source CFD Toolbox
   \\    /   O peration     | Website:  https://openfoam.org
    \\  /    A nd           | Version:  8
     \\/     M anipulation  |
\*---------------------------------------------------------------------------*/
FoamFile
{
    version     2.0;
    format      ascii;
    class       volScalarField;
    location    "1";
    object      gradTx;
}
// * * * * * * * * * * * * * * * * * * * * * * * * * * * * * * * * * * * * * //

dimensions      [0 -1 0 1 0 0 0];

internalField   nonuniform List<scalar> 
2000
(
-14855.9
-13422.1
-10970.7
-8132.48
-5486.04
-3381.26
-1912.3
-996.818
-481.019
-215.791
-90.3609
-35.4525
-13.0788
-4.55171
-1.49894
-0.468411
-0.139262
-0.0394865
-0.0107015
-0.00277793
-0.00069201
-0.000165727
-3.82192e-05
-8.50073e-06
-1.8262e-06
-3.79342e-07
-7.62793e-08
-1.49047e-08
-2.86576e-09
-5.48173e-10
-5.55112e-11
0
1.38778e-11
6.93889e-12
-6.93889e-12
0
0
0
0
0
6.93889e-12
-6.93889e-12
0
0
0
6.93889e-12
0
0
-6.93889e-12
-1.38778e-11
0
0
1.38778e-11
0
-1.38778e-11
0
1.38778e-11
0
0
0
0
0
0
0
-1.38778e-11
0
1.38778e-11
6.93889e-12
-2.08167e-11
-1.38778e-11
1.38778e-11
0
0
0
0
0
0
-1.38778e-11
-6.93889e-12
0
6.93889e-12
1.38778e-11
-1.38778e-11
0
1.38778e-11
0
0
-1.38778e-11
0
2.77556e-11
-1.38778e-11
-2.08167e-11
6.93889e-12
1.38778e-11
-1.38778e-11
-6.93889e-12
6.93889e-12
1.38778e-11
1.38778e-11
-1.38778e-11
-14856.7
-13422.4
-10970.7
-8132.27
-5485.79
-3381.03
-1912.14
-996.718
-480.964
-215.764
-90.3484
-35.4473
-13.0768
-4.55098
-1.4987
-0.468333
-0.139238
-0.0394798
-0.0106997
-0.00277747
-0.000691896
-0.0001657
-3.82132e-05
-8.49939e-06
-1.82585e-06
-3.79301e-07
-7.63209e-08
-1.49186e-08
-2.85189e-09
-5.20417e-10
-6.93889e-11
0
0
1.38778e-11
0
0
0
0
0
-1.38778e-11
-1.38778e-11
1.38778e-11
1.38778e-11
-1.38778e-11
1.38778e-11
0
0
0
-2.77556e-11
0
1.38778e-11
0
-1.38778e-11
-6.93889e-12
6.93889e-12
1.38778e-11
1.38778e-11
0
0
0
-1.38778e-11
0
0
0
0
1.38778e-11
0
-1.38778e-11
-1.38778e-11
0
1.38778e-11
0
0
0
0
-1.38778e-11
1.38778e-11
1.38778e-11
0
6.93889e-12
0
0
-6.93889e-12
-1.38778e-11
1.38778e-11
6.93889e-12
-2.08167e-11
-3.46945e-11
1.38778e-11
0
0
2.08167e-11
0
0
0
1.38778e-11
0
-1.38778e-11
1.38778e-11
-1.38778e-11
-14857.1
-13422.6
-10970.7
-8132.16
-5485.64
-3380.9
-1912.04
-996.655
-480.929
-215.746
-90.3405
-35.444
-13.0755
-4.55051
-1.49854
-0.468283
-0.139223
-0.0394755
-0.0106985
-0.00277717
-0.000691823
-0.000165683
-3.82095e-05
-8.49858e-06
-1.82565e-06
-3.79273e-07
-7.6307e-08
-1.48492e-08
-2.83107e-09
-5.55112e-10
-9.02056e-11
0
0
0
0
0
0
0
0
1.38778e-11
0
-1.38778e-11
0
0
0
1.38778e-11
-3.46945e-11
0
2.08167e-11
-3.46945e-11
-2.08167e-11
0
3.46945e-11
2.08167e-11
-2.08167e-11
6.93889e-12
2.77556e-11
-1.38778e-11
1.38778e-11
0
-1.38778e-11
-2.08167e-11
0
2.08167e-11
0
0
0
0
0
1.38778e-11
0
-1.38778e-11
0
0
0
1.38778e-11
0
-1.38778e-11
0
-2.08167e-11
0
3.46945e-11
0
0
0
-1.38778e-11
0
0
-3.46945e-11
-2.08167e-11
2.08167e-11
2.08167e-11
1.38778e-11
0
0
-2.08167e-11
0
2.08167e-11
0
0
-14857.3
-13422.7
-10970.7
-8132.11
-5485.55
-3380.82
-1911.98
-996.618
-480.908
-215.736
-90.3357
-35.442
-13.0747
-4.55023
-1.49844
-0.468252
-0.139214
-0.0394729
-0.0106978
-0.00277699
-0.000691778
-0.000165672
-3.8207e-05
-8.49803e-06
-1.82557e-06
-3.79273e-07
-7.62862e-08
-1.48909e-08
-2.83801e-09
-5.34295e-10
-8.32667e-11
1.38778e-11
6.93889e-12
0
0
-6.93889e-12
0
6.93889e-12
1.38778e-11
0
-1.38778e-11
-6.93889e-12
-1.38778e-11
1.38778e-11
6.93889e-12
-6.93889e-12
-3.46945e-11
0
3.46945e-11
0
-1.38778e-11
1.38778e-11
6.93889e-12
-6.93889e-12
-1.38778e-11
1.38778e-11
0
-1.38778e-11
0
1.38778e-11
0
-1.38778e-11
1.38778e-11
6.93889e-12
0
-6.93889e-12
-1.38778e-11
-1.38778e-11
0
1.38778e-11
0
-1.38778e-11
1.38778e-11
2.08167e-11
-6.93889e-12
-1.38778e-11
0
1.38778e-11
6.93889e-12
0
-6.93889e-12
0
0
0
0
-1.38778e-11
0
1.38778e-11
0
-1.38778e-11
1.38778e-11
6.93889e-12
0
-6.93889e-12
6.93889e-12
2.77556e-11
-1.38778e-11
-1.38778e-11
-6.93889e-12
-1.38778e-11
-14857.4
-13422.8
-10970.7
-8132.08
-5485.51
-3380.77
-1911.95
-996.598
-480.896
-215.73
-90.3331
-35.4409
-13.0743
-4.55007
-1.49839
-0.468235
-0.139209
-0.0394714
-0.0106974
-0.00277688
-0.000691753
-0.000165666
-3.82057e-05
-8.49775e-06
-1.82554e-06
-3.79259e-07
-7.62862e-08
-1.49256e-08
-2.80331e-09
-4.92661e-10
-1.04083e-10
-6.93889e-12
0
-1.38778e-11
0
1.38778e-11
6.93889e-12
0
-6.93889e-12
-1.38778e-11
0
1.38778e-11
6.93889e-12
-6.93889e-12
-1.38778e-11
0
1.38778e-11
6.93889e-12
2.77556e-11
0
-2.77556e-11
-6.93889e-12
0
6.93889e-12
0
-6.93889e-12
0
0
-1.38778e-11
1.38778e-11
0
6.93889e-12
0
-6.93889e-12
0
0
0
6.93889e-12
0
-6.93889e-12
0
-1.38778e-11
-1.38778e-11
2.77556e-11
6.93889e-12
2.77556e-11
-2.77556e-11
-2.08167e-11
3.46945e-11
3.46945e-11
1.38778e-11
-6.245e-11
-2.08167e-11
2.08167e-11
0
-6.93889e-12
0
6.93889e-12
1.38778e-11
-2.08167e-11
-2.77556e-11
2.77556e-11
0
-2.77556e-11
0
1.38778e-11
0
-2.08167e-11
0
2.08167e-11
-14857.4
-13422.8
-10970.7
-8132.07
-5485.49
-3380.75
-1911.93
-996.588
-480.891
-215.727
-90.3317
-35.4403
-13.0741
-4.54999
-1.49836
-0.468227
-0.139206
-0.0394706
-0.0106972
-0.00277683
-0.00069174
-0.000165663
-3.8205e-05
-8.49759e-06
-1.82555e-06
-3.79329e-07
-7.62723e-08
-1.48631e-08
-2.7825e-09
-5.13478e-10
-1.11022e-10
-1.38778e-11
0
1.38778e-11
6.93889e-12
2.77556e-11
-1.38778e-11
-3.46945e-11
1.38778e-11
0
0
0
-1.38778e-11
2.08167e-11
0
-6.93889e-12
-1.38778e-11
0
3.46945e-11
-1.38778e-11
-2.08167e-11
1.38778e-11
0
0
0
6.93889e-12
0
-3.46945e-11
0
0
1.38778e-11
1.38778e-11
0
6.93889e-12
0
-6.93889e-12
0
0
0
0
0
-1.38778e-11
-1.38778e-11
-2.08167e-11
0
4.85723e-11
6.93889e-12
0
0
2.77556e-11
6.93889e-12
-4.16334e-11
-3.46945e-11
6.93889e-12
1.38778e-11
-1.38778e-11
2.77556e-11
-2.77556e-11
1.38778e-11
2.08167e-11
-4.16334e-11
-1.38778e-11
3.46945e-11
0
0
1.38778e-11
6.93889e-12
-6.93889e-12
-3.46945e-11
3.46945e-11
-14857.5
-13422.8
-10970.7
-8132.06
-5485.48
-3380.74
-1911.92
-996.583
-480.888
-215.726
-90.3311
-35.44
-13.074
-4.54996
-1.49835
-0.468222
-0.139205
-0.0394703
-0.0106971
-0.00277681
-0.000691734
-0.000165662
-3.82047e-05
-8.49759e-06
-1.82553e-06
-3.79294e-07
-7.63001e-08
-1.48354e-08
-2.79637e-09
-5.41234e-10
-8.32667e-11
2.08167e-11
0
0
-6.93889e-12
6.93889e-12
1.38778e-11
-1.38778e-11
0
-2.08167e-11
-1.38778e-11
2.77556e-11
2.08167e-11
-1.38778e-11
-2.08167e-11
-3.46945e-11
3.46945e-11
2.08167e-11
-2.08167e-11
1.38778e-11
6.93889e-12
0
0
0
0
-2.08167e-11
0
2.08167e-11
0
0
0
-2.08167e-11
0
2.08167e-11
0
-6.93889e-12
6.93889e-12
2.77556e-11
-1.38778e-11
-1.38778e-11
0
-3.46945e-11
-2.77556e-11
2.77556e-11
3.46945e-11
-3.46945e-11
0
1.38778e-11
0
3.46945e-11
4.85723e-11
6.93889e-12
-4.16334e-11
-1.38778e-11
2.08167e-11
-4.16334e-11
-3.46945e-11
3.46945e-11
6.93889e-12
-3.46945e-11
-2.77556e-11
0
2.77556e-11
1.38778e-11
0
2.08167e-11
1.38778e-11
1.38778e-11
-1.38778e-11
-1.38778e-11
-14857.5
-13422.8
-10970.7
-8132.06
-5485.47
-3380.74
-1911.92
-996.581
-480.887
-215.725
-90.3309
-35.4399
-13.0739
-4.54994
-1.49835
-0.468221
-0.139205
-0.0394701
-0.0106971
-0.0027768
-0.000691731
-0.000165661
-3.82045e-05
-8.49759e-06
-1.82549e-06
-3.79294e-07
-7.63417e-08
-1.48492e-08
-2.81025e-09
-5.20417e-10
-3.46945e-11
0
0
-1.38778e-11
-6.93889e-12
6.93889e-12
1.38778e-11
0
-2.08167e-11
-3.46945e-11
2.08167e-11
5.55112e-11
-6.93889e-12
-3.46945e-11
6.93889e-12
1.38778e-11
0
0
-1.38778e-11
-6.93889e-12
0
-1.38778e-11
0
0
-1.38778e-11
2.77556e-11
2.08167e-11
-2.08167e-11
-1.38778e-11
1.38778e-11
0
0
6.93889e-12
-6.93889e-12
-1.38778e-11
1.38778e-11
0
-1.38778e-11
-3.46945e-11
0
3.46945e-11
2.08167e-11
0
-2.08167e-11
1.38778e-11
0
0
-1.38778e-11
-1.38778e-11
1.38778e-11
1.38778e-11
2.08167e-11
0
-2.08167e-11
0
0
0
0
-1.38778e-11
0
2.08167e-11
0
-6.93889e-12
0
0
0
6.93889e-12
-6.93889e-12
-3.46945e-11
3.46945e-11
-14857.5
-13422.8
-10970.7
-8132.06
-5485.47
-3380.74
-1911.92
-996.58
-480.887
-215.725
-90.3308
-35.4399
-13.0739
-4.54993
-1.49834
-0.46822
-0.139204
-0.0394701
-0.0106971
-0.00277679
-0.00069173
-0.000165661
-3.82045e-05
-8.49754e-06
-1.82551e-06
-3.79342e-07
-7.63625e-08
-1.48562e-08
-2.78944e-09
-4.85723e-10
-1.38778e-11
2.77556e-11
0
-2.77556e-11
-3.46945e-11
-6.93889e-12
3.46945e-11
6.93889e-12
1.38778e-11
0
-3.46945e-11
2.08167e-11
3.46945e-11
-3.46945e-11
-6.93889e-12
6.93889e-12
-2.08167e-11
2.08167e-11
-6.93889e-12
-3.46945e-11
0
3.46945e-11
6.93889e-12
0
-6.93889e-12
-2.77556e-11
1.38778e-11
1.38778e-11
-1.38778e-11
-1.38778e-11
1.38778e-11
-1.38778e-11
-2.08167e-11
3.46945e-11
1.38778e-11
0
6.93889e-12
-3.46945e-11
0
-6.93889e-12
-3.46945e-11
6.93889e-12
2.77556e-11
6.93889e-12
0
-3.46945e-11
2.77556e-11
-1.38778e-11
-7.63278e-11
2.08167e-11
5.55112e-11
1.38778e-11
0
0
0
0
6.93889e-12
3.46945e-11
2.77556e-11
-1.38778e-11
-3.46945e-11
-3.46945e-11
-1.38778e-11
1.38778e-11
2.08167e-11
0
0
0
-2.08167e-11
1.38778e-11
-14857.5
-13422.8
-10970.7
-8132.06
-5485.47
-3380.74
-1911.92
-996.58
-480.887
-215.725
-90.3308
-35.4399
-13.0739
-4.54993
-1.49834
-0.46822
-0.139204
-0.0394701
-0.0106971
-0.00277679
-0.000691731
-0.000165661
-3.82045e-05
-8.49755e-06
-1.8255e-06
-3.79273e-07
-7.63556e-08
-1.48423e-08
-2.77556e-09
-5.13478e-10
-6.93889e-11
0
0
0
1.38778e-11
1.38778e-11
2.08167e-11
-2.08167e-11
-2.77556e-11
1.38778e-11
-2.08167e-11
2.08167e-11
-1.38778e-11
-2.08167e-11
3.46945e-11
-1.38778e-11
-2.08167e-11
2.08167e-11
1.38778e-11
-1.38778e-11
1.38778e-11
1.38778e-11
0
0
-1.38778e-11
-2.08167e-11
6.93889e-12
2.77556e-11
0
0
-1.38778e-11
2.08167e-11
1.38778e-11
-2.08167e-11
-1.38778e-11
0
-1.38778e-11
-2.08167e-11
1.38778e-11
3.46945e-11
-1.38778e-11
-2.08167e-11
2.08167e-11
2.08167e-11
1.38778e-11
-4.85723e-11
-4.16334e-11
4.16334e-11
2.77556e-11
-2.77556e-11
-2.08167e-11
1.38778e-11
2.08167e-11
-3.46945e-11
-1.38778e-11
1.38778e-11
3.46945e-11
2.08167e-11
0
1.38778e-11
3.46945e-11
6.93889e-12
-2.08167e-11
-4.16334e-11
-1.38778e-11
1.38778e-11
-2.77556e-11
0
1.38778e-11
-1.38778e-11
-14857.5
-13422.8
-10970.7
-8132.06
-5485.47
-3380.74
-1911.92
-996.58
-480.887
-215.725
-90.3308
-35.4399
-13.0739
-4.54994
-1.49835
-0.468221
-0.139205
-0.0394702
-0.0106971
-0.00277681
-0.000691734
-0.000165662
-3.82047e-05
-8.49756e-06
-1.82549e-06
-3.79259e-07
-7.63556e-08
-1.48909e-08
-2.81025e-09
-5.20417e-10
-2.08167e-11
-1.38778e-11
-2.08167e-11
6.93889e-12
2.77556e-11
0
0
-1.38778e-11
0
1.38778e-11
-1.38778e-11
0
1.38778e-11
-1.38778e-11
1.38778e-11
0
-3.46945e-11
3.46945e-11
2.08167e-11
-1.38778e-11
-2.08167e-11
-2.08167e-11
2.08167e-11
0
-3.46945e-11
0
1.38778e-11
-1.38778e-11
-1.38778e-11
2.77556e-11
3.46945e-11
2.08167e-11
0
-2.08167e-11
-3.46945e-11
6.93889e-12
1.38778e-11
-1.38778e-11
1.38778e-11
0
-3.46945e-11
1.38778e-11
2.08167e-11
6.93889e-11
6.93889e-12
-7.63278e-11
-2.08167e-11
-2.77556e-11
0
2.77556e-11
0
2.08167e-11
0
-2.08167e-11
0
6.93889e-12
-6.93889e-12
6.93889e-12
0
2.77556e-11
2.08167e-11
-3.46945e-11
-2.08167e-11
6.93889e-12
-6.93889e-12
-2.77556e-11
1.38778e-11
0
-1.38778e-11
2.77556e-11
-14857.5
-13422.8
-10970.7
-8132.06
-5485.47
-3380.74
-1911.92
-996.581
-480.887
-215.726
-90.331
-35.44
-13.074
-4.54996
-1.49835
-0.468224
-0.139206
-0.0394706
-0.0106972
-0.00277684
-0.000691743
-0.000165664
-3.82053e-05
-8.49767e-06
-1.82557e-06
-3.79294e-07
-7.6307e-08
-1.49047e-08
-2.83801e-09
-5.34295e-10
-4.85723e-11
4.85723e-11
2.08167e-11
-4.85723e-11
0
0
0
0
-4.16334e-11
0
0
0
2.08167e-11
4.85723e-11
6.93889e-12
-6.93889e-12
-3.46945e-11
6.93889e-12
0
0
2.77556e-11
-3.46945e-11
-3.46945e-11
0
2.08167e-11
-1.38778e-11
-6.93889e-12
2.08167e-11
3.46945e-11
-1.38778e-11
-6.93889e-12
2.08167e-11
0
-1.38778e-11
-3.46945e-11
-2.08167e-11
-1.38778e-11
0
4.85723e-11
-1.38778e-11
-2.08167e-11
1.38778e-11
-1.38778e-11
1.38778e-11
4.16334e-11
-4.16334e-11
-3.46945e-11
0
-1.38778e-11
4.85723e-11
0
-2.77556e-11
-2.77556e-11
2.08167e-11
3.46945e-11
0
0
-1.38778e-11
-1.38778e-11
0
2.77556e-11
-1.38778e-11
0
0
-1.38778e-11
2.77556e-11
0
0
-2.77556e-11
2.77556e-11
-14857.5
-13422.8
-10970.7
-8132.06
-5485.47
-3380.74
-1911.92
-996.583
-480.889
-215.727
-90.3315
-35.4403
-13.0741
-4.55001
-1.49838
-0.468232
-0.139209
-0.0394715
-0.0106975
-0.00277692
-0.000691768
-0.000165671
-3.82071e-05
-8.4981e-06
-1.82566e-06
-3.79356e-07
-7.63556e-08
-1.49256e-08
-2.83107e-09
-4.996e-10
-5.55112e-11
6.93889e-12
0
0
2.77556e-11
0
0
6.93889e-12
-2.08167e-11
-1.38778e-11
-6.93889e-12
0
6.93889e-12
0
0
2.77556e-11
0
-2.77556e-11
0
1.38778e-11
0
-1.38778e-11
1.38778e-11
-1.38778e-11
0
0
0
0
0
0
2.77556e-11
0
-2.77556e-11
1.38778e-11
0
0
-1.38778e-11
-2.08167e-11
2.08167e-11
2.77556e-11
-1.38778e-11
-1.38778e-11
0
1.38778e-11
1.38778e-11
-3.46945e-11
-1.38778e-11
3.46945e-11
2.08167e-11
-3.46945e-11
-5.55112e-11
2.08167e-11
6.245e-11
2.08167e-11
-4.85723e-11
-6.93889e-12
3.46945e-11
6.93889e-12
-2.08167e-11
-1.38778e-11
2.77556e-11
0
-3.46945e-11
0
3.46945e-11
-1.38778e-11
-4.85723e-11
3.46945e-11
1.38778e-11
-1.38778e-11
-14857.5
-13422.8
-10970.7
-8132.06
-5485.48
-3380.75
-1911.93
-996.589
-480.893
-215.729
-90.3329
-35.441
-13.0744
-4.55015
-1.49843
-0.468252
-0.139216
-0.0394738
-0.0106982
-0.00277714
-0.000691829
-0.000165687
-3.82113e-05
-8.49918e-06
-1.8259e-06
-3.79412e-07
-7.63486e-08
-1.48909e-08
-2.82413e-09
-5.06539e-10
-6.245e-11
-6.93889e-12
-2.77556e-11
1.38778e-11
2.08167e-11
0
0
1.38778e-11
0
-1.38778e-11
0
0
0
-6.93889e-12
0
6.93889e-12
-6.93889e-12
0
0
0
6.93889e-12
-6.93889e-12
0
6.93889e-12
0
0
0
0
0
0
0
0
0
-6.93889e-12
0
0
0
3.46945e-11
2.08167e-11
-3.46945e-11
-1.38778e-11
0
0
0
1.38778e-11
2.08167e-11
2.77556e-11
-2.77556e-11
-3.46945e-11
0
-6.93889e-12
0
6.93889e-12
0
-2.08167e-11
1.38778e-11
2.08167e-11
-2.08167e-11
-1.38778e-11
2.08167e-11
1.38778e-11
-1.38778e-11
0
1.38778e-11
0
-1.38778e-11
-6.93889e-12
6.93889e-12
2.77556e-11
-2.77556e-11
-14857.4
-13422.8
-10970.7
-8132.06
-5485.49
-3380.76
-1911.95
-996.601
-480.902
-215.735
-90.336
-35.4425
-13.0752
-4.55046
-1.49855
-0.468299
-0.139232
-0.0394792
-0.0106999
-0.00277764
-0.000691968
-0.000165725
-3.8221e-05
-8.50162e-06
-1.82646e-06
-3.79502e-07
-7.63972e-08
-1.49394e-08
-2.79637e-09
-4.44089e-10
-7.63278e-11
-3.46945e-11
-1.38778e-11
2.77556e-11
4.16334e-11
0
-2.08167e-11
-1.38778e-11
3.46945e-11
-2.08167e-11
-3.46945e-11
3.46945e-11
-2.08167e-11
-4.85723e-11
0
3.46945e-11
2.08167e-11
-6.93889e-12
6.93889e-12
2.08167e-11
2.77556e-11
-3.46945e-11
0
4.16334e-11
-6.93889e-12
-1.38778e-11
1.38778e-11
6.93889e-12
-6.93889e-12
0
0
-1.38778e-11
0
1.38778e-11
-3.46945e-11
0
3.46945e-11
6.93889e-12
-2.08167e-11
-5.55112e-11
1.38778e-11
6.93889e-12
-6.93889e-12
6.93889e-12
1.38778e-11
2.08167e-11
0
2.08167e-11
-6.93889e-12
-4.85723e-11
0
1.38778e-11
-1.38778e-11
3.46945e-11
-4.16334e-11
-4.85723e-11
4.85723e-11
4.16334e-11
-1.38778e-11
-2.08167e-11
1.38778e-11
0
6.93889e-12
1.38778e-11
-1.38778e-11
0
-6.93889e-12
-1.38778e-11
1.38778e-11
2.08167e-11
-14857.4
-13422.7
-10970.7
-8132.05
-5485.5
-3380.79
-1911.98
-996.628
-480.921
-215.747
-90.3427
-35.4459
-13.0767
-4.55113
-1.49882
-0.468398
-0.139267
-0.0394905
-0.0107035
-0.00277868
-0.000692263
-0.000165804
-3.82415e-05
-8.50664e-06
-1.82764e-06
-3.79773e-07
-7.64389e-08
-1.49741e-08
-2.81025e-09
-4.44089e-10
-5.55112e-11
-1.38778e-11
-6.93889e-12
-4.85723e-11
2.08167e-11
3.46945e-11
0
-3.46945e-11
1.38778e-11
3.46945e-11
0
0
-3.46945e-11
0
0
0
2.08167e-11
0
0
1.38778e-11
0
-2.08167e-11
0
6.93889e-12
-2.08167e-11
0
2.08167e-11
0
-2.08167e-11
0
1.38778e-11
6.93889e-12
2.77556e-11
-1.38778e-11
0
1.38778e-11
0
-1.38778e-11
-4.85723e-11
-2.08167e-11
4.85723e-11
6.93889e-12
-6.93889e-12
6.93889e-12
4.85723e-11
-1.38778e-11
-6.93889e-12
6.93889e-12
-2.08167e-11
-4.85723e-11
0
3.46945e-11
1.38778e-11
0
-2.08167e-11
-4.85723e-11
2.08167e-11
3.46945e-11
-2.08167e-11
-1.38778e-11
3.46945e-11
0
-2.08167e-11
1.38778e-11
2.08167e-11
1.38778e-11
-1.38778e-11
-3.46945e-11
0
2.08167e-11
-14857.2
-13422.6
-10970.6
-8132.04
-5485.54
-3380.85
-1912.04
-996.681
-480.959
-215.77
-90.3559
-35.4526
-13.0798
-4.55245
-1.49935
-0.468592
-0.139334
-0.0395128
-0.0107104
-0.00278072
-0.000692837
-0.000165958
-3.8281e-05
-8.51636e-06
-1.82993e-06
-3.80321e-07
-7.65638e-08
-1.49186e-08
-2.79637e-09
-4.78784e-10
-7.63278e-11
-3.46945e-11
-1.38778e-11
-2.08167e-11
0
4.16334e-11
0
0
1.38778e-11
-3.46945e-11
1.38778e-11
6.93889e-12
-2.08167e-11
0
2.08167e-11
1.38778e-11
-1.38778e-11
-6.93889e-12
-1.38778e-11
1.38778e-11
0
-1.38778e-11
0
0
-1.38778e-11
0
1.38778e-11
0
0
0
0
-1.38778e-11
0
1.38778e-11
0
0
0
-1.38778e-11
2.77556e-11
0
2.08167e-11
-2.08167e-11
-2.77556e-11
3.46945e-11
1.38778e-11
-1.38778e-11
-6.93889e-12
-1.38778e-11
0
0
1.38778e-11
0
-1.38778e-11
1.38778e-11
-1.38778e-11
1.38778e-11
-2.77556e-11
-2.77556e-11
2.77556e-11
3.46945e-11
-6.93889e-12
-2.77556e-11
3.46945e-11
2.77556e-11
-2.77556e-11
-6.93889e-12
0
-1.38778e-11
2.08167e-11
0
-14857.1
-13422.5
-10970.5
-8132.01
-5485.59
-3380.95
-1912.15
-996.777
-481.027
-215.813
-90.3797
-35.4646
-13.0854
-4.55483
-1.50029
-0.468941
-0.139455
-0.0395526
-0.0107227
-0.00278437
-0.00069386
-0.000166233
-3.83513e-05
-8.53365e-06
-1.83403e-06
-3.81202e-07
-7.67511e-08
-1.49672e-08
-2.84495e-09
-5.13478e-10
-5.55112e-11
-1.38778e-11
-5.55112e-11
-6.93889e-12
6.245e-11
0
-6.93889e-12
6.93889e-12
2.77556e-11
-2.77556e-11
-2.08167e-11
-6.93889e-12
2.08167e-11
6.93889e-12
-6.93889e-12
6.93889e-12
2.77556e-11
-1.38778e-11
-2.08167e-11
6.93889e-12
0
0
0
0
0
-6.93889e-12
2.08167e-11
0
-1.38778e-11
0
-6.93889e-12
0
6.93889e-12
1.38778e-11
-1.38778e-11
-6.93889e-12
-2.08167e-11
0
2.77556e-11
2.77556e-11
0
-2.77556e-11
0
3.46945e-11
0
-6.93889e-12
0
-3.46945e-11
-6.93889e-11
2.08167e-11
3.46945e-11
-6.93889e-12
2.77556e-11
0
-2.77556e-11
6.93889e-12
1.38778e-11
-1.38778e-11
0
1.38778e-11
0
-1.38778e-11
0
1.38778e-11
6.93889e-12
1.38778e-11
0
-1.38778e-11
0
1.38778e-11
-14856.8
-13422.2
-10970.3
-8131.95
-5485.67
-3381.12
-1912.34
-996.934
-481.14
-215.883
-90.419
-35.4845
-13.0946
-4.55873
-1.50183
-0.469513
-0.139654
-0.0396178
-0.010743
-0.00279032
-0.000695531
-0.00016668
-3.8466e-05
-8.56189e-06
-1.84072e-06
-3.82722e-07
-7.70495e-08
-1.50158e-08
-2.84495e-09
-5.13478e-10
-7.63278e-11
-1.38778e-11
-2.08167e-11
0
2.08167e-11
-2.08167e-11
0
1.38778e-11
6.93889e-12
1.38778e-11
0
0
-1.38778e-11
0
1.38778e-11
0
-2.08167e-11
0
2.08167e-11
0
0
-2.08167e-11
0
6.93889e-12
0
-6.93889e-12
0
6.93889e-12
-2.08167e-11
0
2.08167e-11
0
0
0
0
0
0
-6.93889e-12
0
2.08167e-11
0
-2.08167e-11
0
2.08167e-11
1.38778e-11
-1.38778e-11
-2.08167e-11
0
6.93889e-12
0
0
0
1.38778e-11
0
-3.46945e-11
0
1.38778e-11
0
-1.38778e-11
-1.38778e-11
2.77556e-11
0
0
2.08167e-11
0
-1.38778e-11
0
0
0
0
-14856.4
-13421.8
-10970
-8131.82
-5485.77
-3381.35
-1912.61
-997.169
-481.309
-215.99
-90.4783
-35.5144
-13.1084
-4.56461
-1.50416
-0.470374
-0.139953
-0.0397157
-0.0107733
-0.00279925
-0.000698033
-0.00016735
-3.86376e-05
-8.60407e-06
-1.85067e-06
-3.8497e-07
-7.75213e-08
-1.5099e-08
-2.88658e-09
-5.41234e-10
-8.32667e-11
2.08167e-11
1.38778e-11
0
-2.08167e-11
-2.77556e-11
1.38778e-11
3.46945e-11
0
-1.38778e-11
1.38778e-11
0
0
0
-3.46945e-11
1.38778e-11
2.08167e-11
0
0
0
-2.08167e-11
-2.77556e-11
1.38778e-11
1.38778e-11
6.93889e-12
2.77556e-11
-2.77556e-11
-2.08167e-11
-1.38778e-11
0
3.46945e-11
1.38778e-11
-2.08167e-11
-1.38778e-11
0
0
2.08167e-11
1.38778e-11
-1.38778e-11
0
0
-3.46945e-11
0
3.46945e-11
4.85723e-11
2.08167e-11
-3.46945e-11
-2.08167e-11
-1.38778e-11
0
-3.46945e-11
-6.93889e-12
4.16334e-11
1.38778e-11
1.38778e-11
6.93889e-12
-2.08167e-11
0
-2.08167e-11
-4.85723e-11
1.38778e-11
0
2.08167e-11
3.46945e-11
-1.38778e-11
0
0
0
0
0
)
;

boundaryField
{
    top
    {
        type            calculated;
        value           nonuniform List<scalar> 
100
(
-14856.4
-13421.8
-10970
-8131.82
-5485.77
-3381.35
-1912.61
-997.169
-481.309
-215.99
-90.4783
-35.5144
-13.1084
-4.56461
-1.50416
-0.470374
-0.139953
-0.0397157
-0.0107733
-0.00279925
-0.000698033
-0.00016735
-3.86376e-05
-8.60407e-06
-1.85067e-06
-3.8497e-07
-7.75213e-08
-1.5099e-08
-2.88658e-09
-5.41234e-10
-8.32667e-11
2.08167e-11
1.38778e-11
0
-2.08167e-11
-2.77556e-11
1.38778e-11
3.46945e-11
0
-1.38778e-11
1.38778e-11
0
0
0
-3.46945e-11
1.38778e-11
2.08167e-11
0
0
0
-2.08167e-11
-2.77556e-11
1.38778e-11
1.38778e-11
6.93889e-12
2.77556e-11
-2.77556e-11
-2.08167e-11
-1.38778e-11
0
3.46945e-11
1.38778e-11
-2.08167e-11
-1.38778e-11
0
0
2.08167e-11
1.38778e-11
-1.38778e-11
0
0
-3.46945e-11
0
3.46945e-11
4.85723e-11
2.08167e-11
-3.46945e-11
-2.08167e-11
-1.38778e-11
0
-3.46945e-11
-6.93889e-12
4.16334e-11
1.38778e-11
1.38778e-11
6.93889e-12
-2.08167e-11
0
-2.08167e-11
-4.85723e-11
1.38778e-11
0
2.08167e-11
3.46945e-11
-1.38778e-11
0
0
0
0
0
)
;
    }
    bottom
    {
        type            calculated;
        value           nonuniform List<scalar> 
100
(
-14855.9
-13422.1
-10970.7
-8132.48
-5486.04
-3381.26
-1912.3
-996.818
-481.019
-215.791
-90.3609
-35.4525
-13.0788
-4.55171
-1.49894
-0.468411
-0.139262
-0.0394865
-0.0107015
-0.00277793
-0.00069201
-0.000165727
-3.82192e-05
-8.50073e-06
-1.8262e-06
-3.79342e-07
-7.62793e-08
-1.49047e-08
-2.86576e-09
-5.48173e-10
-5.55112e-11
0
1.38778e-11
6.93889e-12
-6.93889e-12
0
0
0
0
0
6.93889e-12
-6.93889e-12
0
0
0
6.93889e-12
0
0
-6.93889e-12
-1.38778e-11
0
0
1.38778e-11
0
-1.38778e-11
0
1.38778e-11
0
0
0
0
0
0
0
-1.38778e-11
0
1.38778e-11
6.93889e-12
-2.08167e-11
-1.38778e-11
1.38778e-11
0
0
0
0
0
0
-1.38778e-11
-6.93889e-12
0
6.93889e-12
1.38778e-11
-1.38778e-11
0
1.38778e-11
0
0
-1.38778e-11
0
2.77556e-11
-1.38778e-11
-2.08167e-11
6.93889e-12
1.38778e-11
-1.38778e-11
-6.93889e-12
6.93889e-12
1.38778e-11
1.38778e-11
-1.38778e-11
)
;
    }
    left
    {
        type            calculated;
        value           nonuniform List<scalar> 
20
(
-15244.2
-15245.3
-15245.8
-15246
-15246.1
-15246.2
-15246.2
-15246.2
-15246.2
-15246.2
-15246.2
-15246.2
-15246.2
-15246.2
-15246.2
-15246.1
-15246
-15245.8
-15245.5
-15245.2
)
;
    }
    right
    {
        type            calculated;
        value           nonuniform List<scalar> 
20
(
-4.54747e-11
-4.54747e-11
0
0
0
9.09495e-11
0
9.09495e-11
4.54747e-11
-4.54747e-11
4.54747e-11
9.09495e-11
9.09495e-11
-2.27374e-11
0
0
-4.54747e-11
0
0
0
)
;
    }
    frontAndBack
    {
        type            empty;
    }
}


// ************************************************************************* //
