/*--------------------------------*- C++ -*----------------------------------*\
  =========                 |
  \\      /  F ield         | OpenFOAM: The Open Source CFD Toolbox
   \\    /   O peration     | Website:  https://openfoam.org
    \\  /    A nd           | Version:  8
     \\/     M anipulation  |
\*---------------------------------------------------------------------------*/
FoamFile
{
    version     2.0;
    format      ascii;
    class       volScalarField;
    location    "1";
    object      gradTy;
}
// * * * * * * * * * * * * * * * * * * * * * * * * * * * * * * * * * * * * * //

dimensions      [0 -1 0 1 0 0 0];

internalField   nonuniform List<scalar> 
2000
(
-0.261766
-0.510344
-0.560193
-0.485149
-0.357451
-0.231267
-0.13379
-0.0700662
-0.0335282
-0.0147699
-0.00602716
-0.00229044
-0.000814317
-0.000271944
-8.56086e-05
-2.54842e-05
-7.19365e-06
-1.93037e-06
-4.93508e-07
-1.20459e-07
-2.80956e-08
-6.28664e-09
-1.38778e-09
-3.1225e-10
-4.85723e-11
3.46945e-11
-1.38778e-11
0
-1.38778e-11
6.93889e-12
0
0
0
-1.38778e-11
-6.93889e-12
0
0
0
0
0
-2.08167e-11
-2.77556e-11
1.38778e-11
-1.38778e-11
0
0
-1.38778e-11
0
-1.38778e-11
-6.93889e-12
0
0
0
-2.77556e-11
-6.93889e-12
0
0
0
0
0
0
-1.38778e-11
0
-1.38778e-11
0
0
1.38778e-11
-1.38778e-11
-6.93889e-12
0
-6.93889e-12
6.93889e-12
0
0
-6.93889e-12
6.93889e-12
-6.93889e-12
1.38778e-11
6.93889e-12
2.77556e-11
2.08167e-11
1.38778e-11
1.38778e-11
1.38778e-11
0
1.38778e-11
1.38778e-11
-6.93889e-12
-1.38778e-11
0
-3.46945e-11
1.38778e-11
1.38778e-11
0
0
6.93889e-12
2.77556e-11
0
0
-6.93889e-12
-0.384724
-0.79375
-0.891307
-0.780815
-0.579003
-0.376069
-0.218106
-0.114417
-0.0548168
-0.024169
-0.00986907
-0.00375228
-0.00133453
-0.000445791
-0.000140361
-4.17874e-05
-1.17961e-05
-3.16525e-06
-8.09096e-07
-1.97432e-07
-4.60049e-08
-1.02765e-08
-2.27596e-09
-5.34295e-10
-1.04083e-10
6.93889e-12
-4.16334e-11
0
0
3.46945e-11
0
0
0
-1.38778e-11
-1.38778e-11
0
-1.38778e-11
0
-1.38778e-11
0
0
-6.93889e-12
0
-1.38778e-11
0
-1.38778e-11
0
-4.85723e-11
0
-1.38778e-11
-2.08167e-11
-3.46945e-11
-2.08167e-11
-6.93889e-12
0
-2.08167e-11
1.38778e-11
-1.38778e-11
0
0
0
-1.38778e-11
-2.08167e-11
-1.38778e-11
0
0
0
-1.38778e-11
-1.38778e-11
1.38778e-11
1.38778e-11
0
0
0
0
0
6.93889e-12
0
6.93889e-12
1.38778e-11
-6.93889e-12
0
1.38778e-11
6.93889e-12
1.38778e-11
0
0
0
1.38778e-11
-3.46945e-11
-3.46945e-11
0
6.93889e-12
0
0
6.93889e-12
-6.93889e-12
0
0
-1.38778e-11
-0.185296
-0.437023
-0.517378
-0.46589
-0.351044
-0.230306
-0.134467
-0.0708732
-0.0340731
-0.015063
-0.00616376
-0.00234755
-0.00083613
-0.000279646
-8.81416e-05
-2.62644e-05
-7.41974e-06
-1.99216e-06
-5.09474e-07
-1.24289e-07
-2.90185e-08
-6.46705e-09
-1.4086e-09
-3.05311e-10
-5.55112e-11
-2.08167e-11
0
0
6.93889e-12
1.38778e-11
0
0
1.38778e-11
1.38778e-11
0
1.38778e-11
-1.38778e-11
1.38778e-11
0
2.77556e-11
1.38778e-11
2.08167e-11
-1.38778e-11
0
1.38778e-11
0
0
-3.46945e-11
0
2.08167e-11
0
0
1.38778e-11
2.08167e-11
6.93889e-12
0
6.93889e-12
-1.38778e-11
0
-1.38778e-11
1.38778e-11
0
0
1.38778e-11
1.38778e-11
1.38778e-11
-1.38778e-11
0
-1.38778e-11
6.93889e-12
0
0
-6.93889e-12
1.38778e-11
1.38778e-11
0
1.38778e-11
-1.38778e-11
1.38778e-11
0
0
-1.38778e-11
0
0
1.38778e-11
-1.38778e-11
-1.38778e-11
6.93889e-12
3.46945e-11
0
2.08167e-11
6.93889e-12
1.38778e-11
1.38778e-11
0
2.77556e-11
6.93889e-12
1.38778e-11
1.38778e-11
-1.38778e-11
-0.092936
-0.231386
-0.282771
-0.259956
-0.198621
-0.13158
-0.0773688
-0.0409976
-0.0197936
-0.00878087
-0.00360382
-0.00137618
-0.000491327
-0.000164691
-5.20185e-05
-1.55319e-05
-4.39645e-06
-1.18271e-06
-3.03035e-07
-7.40727e-08
-1.73125e-08
-3.89966e-09
-8.25728e-10
-1.249e-10
0
-2.08167e-11
2.08167e-11
-2.08167e-11
-3.46945e-11
2.08167e-11
2.77556e-11
0
1.38778e-11
0
0
0
1.38778e-11
1.38778e-11
1.38778e-11
0
-1.38778e-11
0
1.38778e-11
1.38778e-11
0
0
-6.93889e-12
4.85723e-11
0
4.85723e-11
3.46945e-11
4.85723e-11
2.08167e-11
1.38778e-11
1.38778e-11
3.46945e-11
-6.93889e-12
1.38778e-11
0
-1.38778e-11
0
1.38778e-11
3.46945e-11
1.38778e-11
0
1.38778e-11
0
1.38778e-11
1.38778e-11
1.38778e-11
-1.38778e-11
1.38778e-11
-1.38778e-11
0
1.38778e-11
1.38778e-11
2.08167e-11
-6.93889e-12
1.38778e-11
2.08167e-11
6.93889e-11
3.46945e-11
-2.77556e-11
1.38778e-11
0
1.38778e-11
0
1.38778e-11
1.38778e-11
6.245e-11
1.38778e-11
1.38778e-11
1.38778e-11
0
-6.93889e-12
0
2.77556e-11
0
-2.08167e-11
0
-0.0447739
-0.114373
-0.142622
-0.133164
-0.102939
-0.0687992
-0.0407314
-0.0217012
-0.0105242
-0.00468647
-0.00192977
-0.000739098
-0.000264594
-8.89177e-05
-2.81533e-05
-8.42584e-06
-2.39047e-06
-6.44561e-07
-1.65527e-07
-4.05925e-08
-9.5271e-09
-2.13024e-09
-4.3715e-10
-5.55112e-11
0
-3.46945e-11
-6.93889e-11
-1.38778e-11
-2.08167e-11
2.77556e-11
0
0
-2.77556e-11
-1.38778e-11
-6.93889e-12
0
2.08167e-11
-1.38778e-11
-2.77556e-11
-2.77556e-11
-6.93889e-12
-1.38778e-11
0
-1.38778e-11
0
-1.38778e-11
0
6.93889e-12
1.38778e-11
0
0
-1.38778e-11
-1.38778e-11
-1.38778e-11
0
0
0
0
-2.08167e-11
0
-2.08167e-11
0
0
-1.38778e-11
0
-1.38778e-11
0
0
1.38778e-11
0
0
0
0
-2.08167e-11
-4.85723e-11
-1.38778e-11
1.38778e-11
0
0
-6.93889e-12
2.08167e-11
6.93889e-12
-2.08167e-11
-2.08167e-11
-1.38778e-11
-1.38778e-11
0
0
-3.46945e-11
6.93889e-12
0
-4.85723e-11
-2.77556e-11
-1.38778e-11
-1.38778e-11
-2.77556e-11
-2.77556e-11
0
-2.77556e-11
-2.08167e-11
-0.0203149
-0.0525978
-0.066471
-0.0627918
-0.0490093
-0.0330127
-0.0196699
-0.0105356
-0.00513237
-0.0022944
-0.000948064
-0.000364253
-0.000130782
-4.40705e-05
-1.39902e-05
-4.1976e-06
-1.19384e-06
-3.22631e-07
-8.30794e-08
-2.04003e-08
-4.82253e-09
-1.05471e-09
-1.66533e-10
-4.85723e-11
-1.38778e-11
-4.85723e-11
-4.16334e-11
-4.16334e-11
1.38778e-11
-3.46945e-11
-4.85723e-11
0
-6.93889e-12
0
0
-1.38778e-11
0
-1.38778e-11
0
0
-1.38778e-11
-2.08167e-11
0
0
0
-2.08167e-11
-3.46945e-11
0
-2.77556e-11
-4.85723e-11
-1.38778e-11
0
0
-1.38778e-11
-1.38778e-11
-1.38778e-11
-2.77556e-11
-1.38778e-11
0
-6.93889e-12
0
-1.38778e-11
-3.46945e-11
-1.38778e-11
0
-1.38778e-11
-6.93889e-12
0
0
-1.38778e-11
0
-1.38778e-11
-2.08167e-11
-3.46945e-11
-1.38778e-11
-6.93889e-12
-6.93889e-11
6.93889e-12
-3.46945e-11
-2.77556e-11
-3.46945e-11
1.38778e-11
3.46945e-11
-1.38778e-11
0
0
-3.46945e-11
-2.08167e-11
-1.38778e-11
-6.93889e-12
-2.77556e-11
-2.77556e-11
-4.16334e-11
0
-1.38778e-11
0
0
1.38778e-11
2.77556e-11
0
-0.00861141
-0.022472
-0.028663
-0.0273186
-0.0214908
-0.0145738
-0.00873306
-0.00470031
-0.00229927
-0.0010316
-0.000427627
-0.000164765
-5.93087e-05
-2.00318e-05
-6.37248e-06
-1.91566e-06
-5.45744e-07
-1.47715e-07
-3.80876e-08
-9.38832e-09
-2.22738e-09
-4.996e-10
-4.85723e-11
-2.08167e-11
-3.46945e-11
4.85723e-11
0
-4.85723e-11
2.08167e-11
-6.245e-11
1.38778e-11
1.38778e-11
2.08167e-11
1.38778e-11
0
-6.93889e-12
-6.93889e-12
1.38778e-11
1.38778e-11
-2.08167e-11
-2.08167e-11
1.38778e-11
3.46945e-11
0
-1.38778e-11
1.38778e-11
6.93889e-12
2.77556e-11
1.38778e-11
-6.93889e-12
0
0
-6.93889e-12
0
-6.93889e-12
-6.93889e-12
0
1.38778e-11
1.38778e-11
6.93889e-12
6.93889e-12
0
0
1.38778e-11
-2.08167e-11
0
0
0
-1.38778e-11
-3.46945e-11
-6.93889e-12
0
2.08167e-11
6.93889e-12
3.46945e-11
6.93889e-12
-1.38778e-11
0
-2.77556e-11
-6.93889e-12
-3.46945e-11
-1.38778e-11
3.46945e-11
2.08167e-11
0
2.77556e-11
0
0
2.08167e-11
-2.77556e-11
0
4.16334e-11
6.93889e-12
0
1.38778e-11
0
0
0
6.93889e-12
0
-0.00338777
-0.00888318
-0.0114007
-0.0109331
-0.00864743
-0.00589012
-0.00354141
-0.00191055
-0.000935907
-0.000420121
-0.000174088
-6.6994e-05
-2.40644e-05
-8.10313e-06
-2.56729e-06
-7.67823e-07
-2.17333e-07
-5.84185e-08
-1.49394e-08
-3.69149e-09
-8.60423e-10
-1.73472e-10
-3.46945e-11
2.08167e-11
2.77556e-11
3.46945e-11
-2.77556e-11
-4.16334e-11
-2.08167e-11
-3.46945e-11
3.46945e-11
3.46945e-11
3.46945e-11
3.46945e-11
6.93889e-12
6.93889e-12
-1.38778e-11
3.46945e-11
1.38778e-11
5.55112e-11
2.08167e-11
3.46945e-11
2.08167e-11
4.85723e-11
0
5.55112e-11
4.85723e-11
0
3.46945e-11
6.93889e-12
0
0
3.46945e-11
1.38778e-11
3.46945e-11
0
3.46945e-11
1.38778e-11
2.08167e-11
0
1.38778e-11
1.38778e-11
2.08167e-11
-1.38778e-11
3.46945e-11
0
4.16334e-11
0
-1.38778e-11
1.38778e-11
-1.38778e-11
-2.08167e-11
3.46945e-11
3.46945e-11
1.38778e-11
0
2.77556e-11
1.38778e-11
0
-5.55112e-11
-2.08167e-11
-4.16334e-11
-2.08167e-11
0
-1.38778e-11
-2.77556e-11
3.46945e-11
2.08167e-11
3.46945e-11
2.77556e-11
6.245e-11
3.46945e-11
2.77556e-11
-1.38778e-11
2.08167e-11
1.38778e-11
0
0
0
-1.38778e-11
-0.00118365
-0.00310532
-0.00398144
-0.00380427
-0.00298766
-0.00201247
-0.00119115
-0.000629391
-0.00030023
-0.000130362
-5.18383e-05
-1.89596e-05
-6.3947e-06
-1.99036e-06
-5.70696e-07
-1.49894e-07
-3.5652e-08
-7.48707e-09
-1.31839e-09
-1.8735e-10
-1.38778e-11
0
-4.16334e-11
-2.08167e-11
-2.77556e-11
-2.08167e-11
0
-1.38778e-11
-1.38778e-11
2.77556e-11
-1.38778e-11
-1.38778e-11
-1.38778e-11
-1.38778e-11
0
1.38778e-11
0
2.08167e-11
-2.77556e-11
2.77556e-11
2.08167e-11
-2.77556e-11
-6.93889e-12
-2.08167e-11
0
0
-2.08167e-11
-2.77556e-11
0
0
0
1.38778e-11
2.08167e-11
1.38778e-11
2.08167e-11
6.93889e-12
-2.08167e-11
0
2.08167e-11
1.38778e-11
1.38778e-11
0
3.46945e-11
0
2.08167e-11
0
1.38778e-11
-1.38778e-11
0
3.46945e-11
3.46945e-11
-6.93889e-12
-1.38778e-11
1.38778e-11
2.08167e-11
2.77556e-11
-2.77556e-11
-2.08167e-11
3.46945e-11
0
0
-2.08167e-11
-1.38778e-11
0
-2.08167e-11
-6.93889e-12
-6.93889e-12
2.08167e-11
1.38778e-11
3.46945e-11
2.08167e-11
4.85723e-11
3.46945e-11
3.46945e-11
-6.93889e-12
2.08167e-11
0
-1.38778e-11
0
3.46945e-11
-0.000194472
-0.000480047
-0.000535995
-0.000394551
-0.000181595
-8.65035e-06
8.08242e-05
9.98092e-05
8.16314e-05
5.38954e-05
3.065e-05
1.54962e-05
7.09786e-06
2.98307e-06
1.16111e-06
4.21538e-07
1.43573e-07
4.6102e-08
1.39611e-08
4.00374e-09
1.08941e-09
2.28983e-10
6.93889e-12
-1.38778e-11
0
0
6.93889e-11
3.46945e-11
2.08167e-11
0
0
-6.93889e-12
-3.46945e-11
-3.46945e-11
0
2.08167e-11
1.38778e-11
-6.93889e-12
-6.93889e-12
-2.77556e-11
0
1.38778e-11
-2.77556e-11
-2.77556e-11
0
0
-1.38778e-11
-6.93889e-12
0
2.77556e-11
2.77556e-11
0
-3.46945e-11
6.93889e-12
-3.46945e-11
0
-1.38778e-11
0
-4.16334e-11
0
-1.38778e-11
2.08167e-11
2.77556e-11
4.85723e-11
-3.46945e-11
0
-2.08167e-11
0
0
1.38778e-11
1.38778e-11
6.93889e-12
1.38778e-11
1.38778e-11
5.55112e-11
2.08167e-11
1.38778e-11
-1.38778e-11
0
6.245e-11
6.93889e-12
0
2.08167e-11
0
0
0
6.93889e-12
-6.93889e-12
-2.08167e-11
-3.46945e-11
1.38778e-11
2.77556e-11
6.93889e-12
1.38778e-11
6.93889e-12
-2.08167e-11
-6.93889e-12
-1.38778e-11
-6.93889e-12
0
0.000568604
0.00160135
0.0023356
0.00264225
0.00251651
0.00208182
0.0015219
0.000995217
0.000587882
0.00031632
0.000156164
7.11909e-05
3.01379e-05
1.19076e-05
4.41064e-06
1.53769e-06
5.06442e-07
1.58082e-07
4.69208e-08
1.3281e-08
3.55965e-09
8.67362e-10
2.22045e-10
1.04083e-10
1.04083e-10
2.77556e-11
6.93889e-11
7.63278e-11
1.38778e-11
6.93889e-12
0
2.08167e-11
4.85723e-11
4.85723e-11
0
3.46945e-11
-1.38778e-11
6.93889e-12
6.93889e-12
-6.93889e-12
0
0
-2.08167e-11
4.85723e-11
4.85723e-11
2.08167e-11
4.85723e-11
6.93889e-12
3.46945e-11
0
4.16334e-11
1.38778e-11
0
-6.93889e-12
-1.38778e-11
1.38778e-11
1.38778e-11
-1.38778e-11
6.93889e-12
2.08167e-11
0
2.77556e-11
0
1.38778e-11
1.38778e-11
-6.93889e-12
-1.38778e-11
-6.93889e-12
1.38778e-11
2.08167e-11
-3.46945e-11
1.38778e-11
0
-2.77556e-11
0
0
-1.38778e-11
2.08167e-11
-6.245e-11
0
0
2.08167e-11
-3.46945e-11
-3.46945e-11
2.08167e-11
0
2.77556e-11
-3.46945e-11
-1.38778e-11
-4.85723e-11
-2.77556e-11
-6.245e-11
-4.16334e-11
-3.46945e-11
0
-3.46945e-11
0
0
0
-3.46945e-11
0.00190171
0.00530709
0.0076187
0.00845601
0.0078981
0.00641548
0.00461384
0.00297414
0.00173505
0.000923493
0.000451611
0.000204164
8.57907e-05
3.3671e-05
1.23968e-05
4.29827e-06
1.40844e-06
4.37581e-07
1.29272e-07
3.63876e-08
9.79078e-09
2.54657e-09
6.31439e-10
1.94289e-10
8.32667e-11
3.46945e-11
0
1.38778e-11
-2.08167e-11
0
-2.08167e-11
-2.08167e-11
0
0
-6.93889e-12
0
-1.38778e-11
0
1.38778e-11
-2.77556e-11
-6.93889e-12
-2.08167e-11
-1.38778e-11
-2.08167e-11
0
-3.46945e-11
2.08167e-11
0
-3.46945e-11
-2.77556e-11
-6.93889e-12
0
0
-2.77556e-11
1.38778e-11
0
0
-1.38778e-11
2.77556e-11
0
0
-1.38778e-11
-2.77556e-11
-3.46945e-11
6.93889e-12
0
-1.38778e-11
-2.77556e-11
-1.38778e-11
-1.38778e-11
6.93889e-12
6.93889e-12
-1.38778e-11
0
-6.245e-11
0
-2.08167e-11
1.38778e-11
2.77556e-11
2.77556e-11
-2.08167e-11
-3.46945e-11
-2.08167e-11
2.77556e-11
2.77556e-11
-2.77556e-11
0
6.93889e-12
1.38778e-11
-1.38778e-11
-2.08167e-11
-1.38778e-11
6.93889e-12
-2.08167e-11
0
2.08167e-11
6.93889e-12
-3.46945e-11
4.16334e-11
-6.93889e-12
0.0049214
0.0137565
0.0197924
0.0220068
0.0205724
0.016709
0.0120061
0.00772807
0.00450008
0.00239015
0.00116619
0.000525962
0.000220477
8.63206e-05
3.17031e-05
1.09654e-05
3.58429e-06
1.11078e-06
3.27328e-07
9.19403e-08
2.47372e-08
6.41154e-09
1.56819e-09
3.60822e-10
5.55112e-11
2.77556e-11
-4.85723e-11
-3.46945e-11
-3.46945e-11
-6.93889e-12
0
-2.77556e-11
-5.55112e-11
-6.93889e-11
0
-4.16334e-11
0
-4.16334e-11
1.38778e-11
0
0
0
0
-2.77556e-11
-5.55112e-11
-3.46945e-11
-3.46945e-11
-6.93889e-12
-4.85723e-11
-6.93889e-12
-4.85723e-11
-2.77556e-11
-2.08167e-11
0
-1.38778e-11
-1.38778e-11
0
0
-2.77556e-11
-3.46945e-11
-1.38778e-11
-2.08167e-11
-3.46945e-11
-3.46945e-11
-2.08167e-11
0
0
1.38778e-11
3.46945e-11
-6.93889e-12
1.38778e-11
0
0
0
-1.38778e-11
-2.08167e-11
5.55112e-11
2.08167e-11
4.85723e-11
0
0
-1.38778e-11
2.08167e-11
3.46945e-11
0
-6.93889e-12
0
1.38778e-11
-1.38778e-11
1.38778e-11
1.38778e-11
0
1.38778e-11
0
2.77556e-11
1.38778e-11
0
-6.93889e-12
1.38778e-11
3.46945e-11
0.0115162
0.0323112
0.046742
0.0522349
0.049013
0.0398993
0.0286992
0.0184748
0.0107517
0.00570461
0.00277951
0.00125156
0.000523711
0.000204658
7.50194e-05
2.58959e-05
8.44766e-06
2.61259e-06
7.68226e-07
2.15383e-07
5.77177e-08
1.47798e-08
3.62904e-09
7.84095e-10
1.11022e-10
0
-2.08167e-11
-3.46945e-11
-4.85723e-11
-1.38778e-11
2.08167e-11
-3.46945e-11
-2.77556e-11
-4.16334e-11
0
-2.77556e-11
0
-4.85723e-11
-2.77556e-11
1.38778e-11
-3.46945e-11
-1.38778e-11
0
-4.16334e-11
-4.85723e-11
-4.16334e-11
-3.46945e-11
-2.77556e-11
-2.08167e-11
-1.38778e-11
-1.38778e-11
1.38778e-11
-3.46945e-11
1.38778e-11
1.38778e-11
0
0
1.38778e-11
1.38778e-11
0
1.38778e-11
-2.77556e-11
-6.93889e-12
6.93889e-12
-1.38778e-11
-2.77556e-11
0
2.08167e-11
2.08167e-11
-2.77556e-11
-5.55112e-11
0
-3.46945e-11
-6.93889e-12
-3.46945e-11
-1.38778e-11
2.77556e-11
1.38778e-11
0
-2.77556e-11
-1.38778e-11
3.46945e-11
-2.08167e-11
-2.77556e-11
-2.77556e-11
-2.08167e-11
-6.245e-11
-1.38778e-11
-2.08167e-11
0
-3.46945e-11
-1.38778e-11
-3.46945e-11
3.46945e-11
-2.77556e-11
-1.38778e-11
-6.93889e-12
2.08167e-11
-5.55112e-11
2.08167e-11
0.0245697
0.0693519
0.101174
0.113912
0.107463
0.0877741
0.0632452
0.0407373
0.0237026
0.0125664
0.00611593
0.00275008
0.00114898
0.000448259
0.000164028
5.65201e-05
1.84045e-05
5.68157e-06
1.66765e-06
4.66661e-07
1.24775e-07
3.19328e-08
7.85483e-09
1.83187e-09
4.02456e-10
7.63278e-11
2.08167e-11
-2.08167e-11
-5.55112e-11
-1.38778e-11
1.38778e-11
0
2.77556e-11
0
-3.46945e-11
0
0
0
-4.16334e-11
1.38778e-11
0
1.38778e-11
0
-2.08167e-11
1.38778e-11
-2.08167e-11
0
1.38778e-11
0
1.38778e-11
1.38778e-11
0
0
0
0
-2.08167e-11
0
0
0
-2.08167e-11
0
0
6.93889e-12
2.77556e-11
0
2.77556e-11
1.38778e-11
2.77556e-11
-2.77556e-11
-4.16334e-11
-2.08167e-11
1.38778e-11
-6.93889e-12
0
0
2.08167e-11
-2.77556e-11
-1.38778e-11
1.38778e-11
0
-2.77556e-11
1.38778e-11
0
0
1.38778e-11
0
-4.16334e-11
0
6.93889e-12
-1.38778e-11
-2.77556e-11
1.38778e-11
-1.38778e-11
-1.38778e-11
-6.93889e-12
1.38778e-11
6.93889e-12
1.38778e-11
-3.46945e-11
-1.38778e-11
0.0474043
0.135188
0.199877
0.227517
0.216235
0.17741
0.128136
0.0826156
0.048072
0.0254726
0.0123856
0.00556269
0.00232093
0.000904152
0.000330343
0.000113648
3.69477e-05
1.13876e-05
3.33712e-06
9.3222e-07
2.48822e-07
6.36158e-08
1.55848e-08
3.67067e-09
8.39606e-10
2.08167e-10
2.77556e-11
3.46945e-11
4.85723e-11
4.85723e-11
6.93889e-12
3.46945e-11
0
2.77556e-11
-3.46945e-11
-6.93889e-12
0
1.38778e-11
2.08167e-11
-1.38778e-11
6.93889e-12
3.46945e-11
-6.93889e-12
2.77556e-11
3.46945e-11
5.55112e-11
1.38778e-11
2.08167e-11
1.38778e-11
0
0
-2.08167e-11
2.08167e-11
-2.08167e-11
-2.08167e-11
-2.08167e-11
-1.38778e-11
-2.08167e-11
-2.08167e-11
-1.38778e-11
-2.08167e-11
-2.08167e-11
-6.93889e-12
-2.77556e-11
-6.93889e-12
0
-1.38778e-11
-3.46945e-11
-2.77556e-11
0
4.16334e-11
1.38778e-11
6.93889e-12
0
3.46945e-11
0
0
-2.08167e-11
-2.77556e-11
-6.93889e-12
2.08167e-11
0
1.38778e-11
0
0
2.08167e-11
4.16334e-11
-4.16334e-11
-2.08167e-11
0
3.46945e-11
-2.08167e-11
1.38778e-11
0
6.93889e-12
-1.38778e-11
1.38778e-11
0
6.93889e-12
1.38778e-11
0.0814512
0.236866
0.358345
0.414659
0.398113
0.328527
0.238005
0.153662
0.0894403
0.0473777
0.0230199
0.0103286
0.0043045
0.00167479
0.000611103
0.000209956
6.81646e-05
2.09803e-05
6.13973e-06
1.71284e-06
4.56614e-07
1.16546e-07
2.85258e-08
6.70991e-09
1.4988e-09
3.26128e-10
5.55112e-11
3.46945e-11
5.55112e-11
0
-6.93889e-12
0
-1.38778e-11
-2.77556e-11
2.08167e-11
0
0
-2.77556e-11
4.85723e-11
-1.38778e-11
-6.93889e-12
-3.46945e-11
-2.77556e-11
2.77556e-11
-1.38778e-11
2.08167e-11
0
1.38778e-11
-1.38778e-11
-1.38778e-11
-1.38778e-11
-1.38778e-11
1.38778e-11
-1.38778e-11
0
6.93889e-12
-6.93889e-12
6.93889e-12
-1.38778e-11
2.77556e-11
-1.38778e-11
0
-2.77556e-11
-6.93889e-12
0
-1.38778e-11
-6.93889e-12
-4.85723e-11
-6.93889e-12
4.16334e-11
3.46945e-11
-1.38778e-11
0
0
2.08167e-11
-3.46945e-11
1.38778e-11
-2.08167e-11
-3.46945e-11
-5.55112e-11
2.08167e-11
-2.08167e-11
-2.77556e-11
0
-3.46945e-11
0
3.46945e-11
-1.38778e-11
-2.08167e-11
1.38778e-11
0
-2.77556e-11
-1.38778e-11
0
0
-6.93889e-12
-1.38778e-11
0
1.38778e-11
0
0.120745
0.366782
0.579624
0.687944
0.669564
0.5565
0.404627
0.261669
0.152389
0.0807121
0.039196
0.0175731
0.007317
0.00284404
0.00103665
0.000355774
0.00011538
3.54737e-05
1.03699e-05
2.88995e-06
7.69697e-07
1.96343e-07
4.80588e-08
1.13243e-08
2.52576e-09
5.27356e-10
1.249e-10
5.55112e-11
2.08167e-11
1.38778e-11
-1.38778e-11
0
1.38778e-11
-1.38778e-11
3.46945e-11
6.93889e-12
-3.46945e-11
1.38778e-11
-2.77556e-11
1.38778e-11
2.08167e-11
0
1.38778e-11
6.93889e-12
2.08167e-11
-1.38778e-11
0
-1.38778e-11
2.08167e-11
2.08167e-11
1.38778e-11
1.38778e-11
0
1.38778e-11
6.93889e-12
2.77556e-11
0
1.38778e-11
1.38778e-11
-1.38778e-11
1.38778e-11
1.38778e-11
2.77556e-11
6.93889e-12
6.93889e-12
1.38778e-11
0
2.08167e-11
0
0
1.38778e-11
-1.38778e-11
1.38778e-11
6.93889e-12
0
1.38778e-11
0
0
1.38778e-11
6.93889e-12
1.38778e-11
0
1.38778e-11
2.77556e-11
0
0
-6.93889e-12
3.46945e-11
2.08167e-11
-1.38778e-11
-2.08167e-11
2.77556e-11
0
-1.38778e-11
0
6.93889e-12
0
6.93889e-12
1.38778e-11
-1.38778e-11
0.140598
0.484292
0.842027
1.03952
1.02955
0.862738
0.629751
0.407983
0.237753
0.125929
0.0611341
0.027394
0.0113986
0.00442723
0.00161247
0.000552953
0.000179183
5.50464e-05
1.6079e-05
4.47756e-06
1.19163e-06
3.03778e-07
7.43364e-08
1.74513e-08
3.93435e-09
8.25728e-10
1.73472e-10
4.16334e-11
2.08167e-11
6.93889e-12
-2.08167e-11
0
6.93889e-12
6.93889e-11
1.38778e-11
-6.93889e-12
-6.93889e-12
2.08167e-11
0
0
1.38778e-11
3.46945e-11
2.08167e-11
1.38778e-11
0
-6.93889e-12
0
0
0
2.77556e-11
0
0
-2.77556e-11
6.93889e-12
-6.93889e-12
2.08167e-11
2.08167e-11
-2.08167e-11
0
-2.08167e-11
0
2.08167e-11
6.93889e-12
-6.93889e-12
-6.93889e-12
0
0
4.85723e-11
6.93889e-12
0
-1.38778e-11
0
-2.08167e-11
0
-2.08167e-11
4.85723e-11
1.38778e-11
6.93889e-12
2.08167e-11
5.55112e-11
6.93889e-12
-1.38778e-11
1.38778e-11
0
2.08167e-11
4.16334e-11
2.08167e-11
1.38778e-11
3.46945e-11
-6.93889e-12
-2.08167e-11
0
-6.93889e-12
2.77556e-11
1.38778e-11
0
0
0
6.93889e-12
0
0.0704664
0.266058
0.48946
0.616155
0.615059
0.517208
0.378146
0.245161
0.142908
0.0756955
0.0367437
0.0164617
0.00684808
0.00265913
0.000968235
0.000331939
0.000107534
3.30263e-05
9.64435e-06
2.68496e-06
7.14352e-07
1.82021e-07
4.4513e-08
1.0443e-08
2.33841e-09
4.996e-10
9.02056e-11
3.46945e-11
1.38778e-11
-6.93889e-12
-3.46945e-11
0
0
3.46945e-11
0
-1.38778e-11
0
0
1.38778e-11
-1.38778e-11
0
0
0
1.38778e-11
-6.93889e-12
-1.38778e-11
0
2.77556e-11
-6.93889e-12
0
-1.38778e-11
-1.38778e-11
-6.93889e-12
0
-1.38778e-11
1.38778e-11
2.08167e-11
-1.38778e-11
-1.38778e-11
0
-1.38778e-11
1.38778e-11
0
-1.38778e-11
-1.38778e-11
-1.38778e-11
-1.38778e-11
1.38778e-11
1.38778e-11
0
-1.38778e-11
0
-2.08167e-11
0
-1.38778e-11
3.46945e-11
2.08167e-11
2.77556e-11
0
0
0
-3.46945e-11
-1.38778e-11
0
0
4.85723e-11
1.38778e-11
6.93889e-12
1.38778e-11
0
-2.08167e-11
-1.38778e-11
-2.08167e-11
6.93889e-12
-1.38778e-11
0
0
0
0
0
)
;

boundaryField
{
    top
    {
        type            calculated;
        value           uniform 0;
    }
    bottom
    {
        type            calculated;
        value           uniform 0;
    }
    left
    {
        type            calculated;
        value           nonuniform List<scalar> 
20
(
-0.261766
-0.384724
-0.185296
-0.092936
-0.0447739
-0.0203149
-0.00861141
-0.00338777
-0.00118365
-0.000194472
0.000568604
0.00190171
0.0049214
0.0115162
0.0245697
0.0474043
0.0814512
0.120745
0.140598
0.0704664
)
;
    }
    right
    {
        type            calculated;
        value           nonuniform List<scalar> 
20
(
-6.93889e-12
-1.38778e-11
-1.38778e-11
0
-2.08167e-11
0
0
-1.38778e-11
3.46945e-11
0
-3.46945e-11
-6.93889e-12
3.46945e-11
2.08167e-11
-1.38778e-11
1.38778e-11
0
-1.38778e-11
0
0
)
;
    }
    frontAndBack
    {
        type            empty;
    }
}


// ************************************************************************* //
