/*--------------------------------*- C++ -*----------------------------------*\
  =========                 |
  \\      /  F ield         | OpenFOAM: The Open Source CFD Toolbox
   \\    /   O peration     | Website:  https://openfoam.org
    \\  /    A nd           | Version:  8
     \\/     M anipulation  |
\*---------------------------------------------------------------------------*/
FoamFile
{
    version     2.0;
    format      ascii;
    class       volScalarField;
    location    "0.6";
    object      gradTy;
}
// * * * * * * * * * * * * * * * * * * * * * * * * * * * * * * * * * * * * * //

dimensions      [0 -1 0 1 0 0 0];

internalField   nonuniform List<scalar> 
2000
(
-0.469711
-0.76352
-0.66324
-0.432272
-0.230256
-0.10434
-0.0412221
-0.0144436
-0.00454611
-0.00129816
-0.000338953
-8.14266e-05
-1.8084e-05
-3.72603e-06
-7.13811e-07
-1.27259e-07
-2.10665e-08
-3.26822e-09
-4.64906e-10
-8.32667e-11
0
0
0
0
2.08167e-11
2.08167e-11
-1.38778e-11
0
-6.93889e-12
0
0
0
0
-1.38778e-11
-6.93889e-12
0
0
0
0
0
-2.08167e-11
-2.77556e-11
1.38778e-11
-1.38778e-11
0
0
-1.38778e-11
0
-1.38778e-11
-6.93889e-12
0
0
0
-2.77556e-11
-6.93889e-12
0
0
0
0
0
0
-1.38778e-11
0
-1.38778e-11
0
0
1.38778e-11
-1.38778e-11
-6.93889e-12
0
-6.93889e-12
6.93889e-12
0
0
-6.93889e-12
6.93889e-12
-6.93889e-12
1.38778e-11
6.93889e-12
2.77556e-11
2.08167e-11
1.38778e-11
1.38778e-11
1.38778e-11
0
1.38778e-11
1.38778e-11
-6.93889e-12
-1.38778e-11
0
-3.46945e-11
1.38778e-11
1.38778e-11
0
0
6.93889e-12
2.77556e-11
0
0
-6.93889e-12
-0.640596
-1.09364
-0.968427
-0.637127
-0.341107
-0.155039
-0.06137
-0.0215311
-0.00678295
-0.00193805
-0.000506205
-0.000121615
-2.70035e-05
-5.56054e-06
-1.06407e-06
-1.89349e-07
-3.13014e-08
-4.82947e-09
-6.93889e-10
-1.04083e-10
6.93889e-12
3.46945e-11
-3.46945e-11
-6.245e-11
-2.08167e-11
0
-1.38778e-11
0
0
0
0
0
0
-1.38778e-11
-1.38778e-11
0
-1.38778e-11
0
-1.38778e-11
0
0
-6.93889e-12
0
-1.38778e-11
0
-1.38778e-11
0
-4.85723e-11
0
-1.38778e-11
-2.08167e-11
-3.46945e-11
-2.08167e-11
-6.93889e-12
0
-2.08167e-11
1.38778e-11
-1.38778e-11
0
0
0
-1.38778e-11
-2.08167e-11
-1.38778e-11
0
0
0
-1.38778e-11
-1.38778e-11
1.38778e-11
1.38778e-11
0
0
0
0
0
6.93889e-12
0
6.93889e-12
1.38778e-11
-6.93889e-12
0
1.38778e-11
6.93889e-12
1.38778e-11
0
0
0
1.38778e-11
-3.46945e-11
-3.46945e-11
0
6.93889e-12
0
0
6.93889e-12
-6.93889e-12
0
0
-1.38778e-11
-0.233004
-0.459856
-0.429912
-0.290546
-0.157918
-0.0724507
-0.0288605
-0.0101722
-0.0032159
-0.000921438
-0.000241203
-5.80434e-05
-1.29009e-05
-2.65718e-06
-5.08101e-07
-9.01779e-08
-1.48492e-08
-2.26208e-09
-2.91434e-10
0
0
0
-3.46945e-11
-3.46945e-11
-6.93889e-12
0
1.38778e-11
0
0
0
0
0
1.38778e-11
1.38778e-11
0
1.38778e-11
-1.38778e-11
1.38778e-11
0
2.77556e-11
1.38778e-11
2.08167e-11
-1.38778e-11
0
1.38778e-11
0
0
-3.46945e-11
0
2.08167e-11
0
0
1.38778e-11
2.08167e-11
6.93889e-12
0
6.93889e-12
-1.38778e-11
0
-1.38778e-11
1.38778e-11
0
0
1.38778e-11
1.38778e-11
1.38778e-11
-1.38778e-11
0
-1.38778e-11
6.93889e-12
0
0
-6.93889e-12
1.38778e-11
1.38778e-11
0
1.38778e-11
-1.38778e-11
1.38778e-11
0
0
-1.38778e-11
0
0
1.38778e-11
-1.38778e-11
-1.38778e-11
6.93889e-12
3.46945e-11
0
2.08167e-11
6.93889e-12
1.38778e-11
1.38778e-11
0
2.77556e-11
6.93889e-12
1.38778e-11
1.38778e-11
-1.38778e-11
-0.0826237
-0.174403
-0.168825
-0.116552
-0.0642427
-0.0297692
-0.0119501
-0.0042389
-0.00134769
-0.000388157
-0.000102111
-2.46906e-05
-5.51399e-06
-1.14109e-06
-2.1922e-07
-3.9059e-08
-6.43235e-09
-9.78384e-10
-1.38778e-10
0
0
-2.08167e-11
-2.77556e-11
2.77556e-11
2.77556e-11
0
3.46945e-11
1.38778e-11
-1.38778e-11
1.38778e-11
1.38778e-11
0
1.38778e-11
0
0
0
1.38778e-11
1.38778e-11
1.38778e-11
0
-1.38778e-11
0
1.38778e-11
1.38778e-11
0
0
-6.93889e-12
4.85723e-11
0
4.85723e-11
3.46945e-11
4.85723e-11
2.08167e-11
1.38778e-11
1.38778e-11
3.46945e-11
-6.93889e-12
1.38778e-11
0
-1.38778e-11
0
1.38778e-11
3.46945e-11
1.38778e-11
0
1.38778e-11
0
1.38778e-11
1.38778e-11
1.38778e-11
-1.38778e-11
1.38778e-11
-1.38778e-11
0
1.38778e-11
1.38778e-11
2.08167e-11
-6.93889e-12
1.38778e-11
2.08167e-11
6.93889e-11
3.46945e-11
-2.77556e-11
1.38778e-11
0
1.38778e-11
0
1.38778e-11
1.38778e-11
6.245e-11
1.38778e-11
1.38778e-11
1.38778e-11
0
-6.93889e-12
0
2.77556e-11
0
-2.08167e-11
0
-0.0265908
-0.0582615
-0.0577802
-0.0405769
-0.022647
-0.0105959
-0.00428707
-0.00153108
-0.000489784
-0.000141881
-3.75308e-05
-9.12422e-06
-2.04852e-06
-4.26222e-07
-8.23369e-08
-1.47451e-08
-2.44249e-09
-4.09395e-10
-8.32667e-11
-4.16334e-11
0
4.85723e-11
0
0
1.38778e-11
-6.93889e-12
-1.38778e-11
0
-6.93889e-12
1.38778e-11
0
0
-2.77556e-11
-1.38778e-11
-6.93889e-12
0
2.08167e-11
-1.38778e-11
-2.77556e-11
-2.77556e-11
-6.93889e-12
-1.38778e-11
0
-1.38778e-11
0
-1.38778e-11
0
6.93889e-12
1.38778e-11
0
0
-1.38778e-11
-1.38778e-11
-1.38778e-11
0
0
0
0
-2.08167e-11
0
-2.08167e-11
0
0
-1.38778e-11
0
-1.38778e-11
0
0
1.38778e-11
0
0
0
0
-2.08167e-11
-4.85723e-11
-1.38778e-11
1.38778e-11
0
0
-6.93889e-12
2.08167e-11
6.93889e-12
-2.08167e-11
-2.08167e-11
-1.38778e-11
-1.38778e-11
0
0
-3.46945e-11
6.93889e-12
0
-4.85723e-11
-2.77556e-11
-1.38778e-11
-1.38778e-11
-2.77556e-11
-2.77556e-11
0
-2.77556e-11
-2.08167e-11
-0.00771267
-0.0172892
-0.0174538
-0.0124304
-0.00701562
-0.0033127
-0.0013509
-0.000485859
-0.000156435
-4.55954e-05
-1.21329e-05
-2.96686e-06
-6.69909e-07
-1.402e-07
-2.72907e-08
-4.93355e-09
-8.53484e-10
-1.11022e-10
-4.16334e-11
0
-2.08167e-11
6.93889e-12
6.245e-11
-1.38778e-11
0
-3.46945e-11
-3.46945e-11
-1.38778e-11
6.93889e-12
-1.38778e-11
-3.46945e-11
0
-6.93889e-12
0
0
-1.38778e-11
0
-1.38778e-11
0
0
-1.38778e-11
-2.08167e-11
0
0
0
-2.08167e-11
-3.46945e-11
0
-2.77556e-11
-4.85723e-11
-1.38778e-11
0
0
-1.38778e-11
-1.38778e-11
-1.38778e-11
-2.77556e-11
-1.38778e-11
0
-6.93889e-12
0
-1.38778e-11
-3.46945e-11
-1.38778e-11
0
-1.38778e-11
-6.93889e-12
0
0
-1.38778e-11
0
-1.38778e-11
-2.08167e-11
-3.46945e-11
-1.38778e-11
-6.93889e-12
-6.93889e-11
6.93889e-12
-3.46945e-11
-2.77556e-11
-3.46945e-11
1.38778e-11
3.46945e-11
-1.38778e-11
0
0
-3.46945e-11
-2.08167e-11
-1.38778e-11
-6.93889e-12
-2.77556e-11
-2.77556e-11
-4.16334e-11
0
-1.38778e-11
0
0
1.38778e-11
2.77556e-11
0
-0.00202074
-0.00460009
-0.0047084
-0.00339344
-0.00193474
-0.000921597
-0.000378758
-0.000137195
-4.44688e-05
-1.3044e-05
-3.49255e-06
-8.59195e-07
-1.9517e-07
-4.10713e-08
-8.04912e-09
-1.50574e-09
-2.70617e-10
-4.85723e-11
2.08167e-11
0
-2.08167e-11
-2.08167e-11
6.245e-11
3.46945e-11
0
6.93889e-12
0
-6.93889e-12
3.46945e-11
-1.38778e-11
1.38778e-11
1.38778e-11
2.08167e-11
1.38778e-11
0
-6.93889e-12
-6.93889e-12
1.38778e-11
1.38778e-11
-2.08167e-11
-2.08167e-11
1.38778e-11
3.46945e-11
0
-1.38778e-11
1.38778e-11
6.93889e-12
2.77556e-11
1.38778e-11
-6.93889e-12
0
0
-6.93889e-12
0
-6.93889e-12
-6.93889e-12
0
1.38778e-11
1.38778e-11
6.93889e-12
6.93889e-12
0
0
1.38778e-11
-2.08167e-11
0
0
0
-1.38778e-11
-3.46945e-11
-6.93889e-12
0
2.08167e-11
6.93889e-12
3.46945e-11
6.93889e-12
-1.38778e-11
0
-2.77556e-11
-6.93889e-12
-3.46945e-11
-1.38778e-11
3.46945e-11
2.08167e-11
0
2.77556e-11
0
0
2.08167e-11
-2.77556e-11
0
4.16334e-11
6.93889e-12
0
1.38778e-11
0
0
0
6.93889e-12
0
-0.000480878
-0.00110707
-0.00114586
-0.000834345
-0.000480029
-0.000230501
-9.54148e-05
-3.47877e-05
-1.13434e-05
-3.34579e-06
-9.00433e-07
-2.22523e-07
-5.07719e-08
-1.07137e-08
-2.07473e-09
-4.51028e-10
-1.17961e-10
-6.93889e-11
-2.08167e-11
-4.85723e-11
-2.77556e-11
-1.38778e-11
-2.77556e-11
2.08167e-11
2.08167e-11
4.85723e-11
0
0
0
0
3.46945e-11
3.46945e-11
3.46945e-11
3.46945e-11
6.93889e-12
6.93889e-12
-1.38778e-11
3.46945e-11
1.38778e-11
5.55112e-11
2.08167e-11
3.46945e-11
2.08167e-11
4.85723e-11
0
5.55112e-11
4.85723e-11
0
3.46945e-11
6.93889e-12
0
0
3.46945e-11
1.38778e-11
3.46945e-11
0
3.46945e-11
1.38778e-11
2.08167e-11
0
1.38778e-11
1.38778e-11
2.08167e-11
-1.38778e-11
3.46945e-11
0
4.16334e-11
0
-1.38778e-11
1.38778e-11
-1.38778e-11
-2.08167e-11
3.46945e-11
3.46945e-11
1.38778e-11
0
2.77556e-11
1.38778e-11
0
-5.55112e-11
-2.08167e-11
-4.16334e-11
-2.08167e-11
0
-1.38778e-11
-2.77556e-11
3.46945e-11
2.08167e-11
3.46945e-11
2.77556e-11
6.245e-11
3.46945e-11
2.77556e-11
-1.38778e-11
2.08167e-11
1.38778e-11
0
0
0
-1.38778e-11
-0.000103647
-0.000240324
-0.000250267
-0.000182949
-0.000105377
-5.04965e-05
-2.07855e-05
-7.50488e-06
-2.41163e-06
-6.96797e-07
-1.82285e-07
-4.32987e-08
-9.38832e-09
-1.85268e-09
-3.747e-10
-1.11022e-10
-4.16334e-11
-4.16334e-11
-8.32667e-11
-5.55112e-11
-2.77556e-11
-2.08167e-11
-3.46945e-11
-2.08167e-11
-2.08167e-11
0
0
-1.38778e-11
-3.46945e-11
1.38778e-11
-1.38778e-11
-1.38778e-11
-1.38778e-11
-1.38778e-11
0
1.38778e-11
0
2.08167e-11
-2.77556e-11
2.77556e-11
2.08167e-11
-2.77556e-11
-6.93889e-12
-2.08167e-11
0
0
-2.08167e-11
-2.77556e-11
0
0
0
1.38778e-11
2.08167e-11
1.38778e-11
2.08167e-11
6.93889e-12
-2.08167e-11
0
2.08167e-11
1.38778e-11
1.38778e-11
0
3.46945e-11
0
2.08167e-11
0
1.38778e-11
-1.38778e-11
0
3.46945e-11
3.46945e-11
-6.93889e-12
-1.38778e-11
1.38778e-11
2.08167e-11
2.77556e-11
-2.77556e-11
-2.08167e-11
3.46945e-11
0
0
-2.08167e-11
-1.38778e-11
0
-2.08167e-11
-6.93889e-12
-6.93889e-12
2.08167e-11
1.38778e-11
3.46945e-11
2.08167e-11
4.85723e-11
3.46945e-11
3.46945e-11
-6.93889e-12
2.08167e-11
0
-1.38778e-11
0
3.46945e-11
-1.48796e-05
-3.24416e-05
-2.92938e-05
-1.62259e-05
-5.09861e-06
3.0087e-07
1.60456e-06
1.27075e-06
6.9475e-07
3.07962e-07
1.17434e-07
3.96766e-08
1.20945e-08
3.36536e-09
8.46545e-10
1.80411e-10
6.93889e-12
-1.38778e-11
-5.55112e-11
-4.16334e-11
-1.38778e-11
-4.16334e-11
-4.85723e-11
-1.38778e-11
-1.38778e-11
-1.38778e-11
2.77556e-11
-1.38778e-11
-2.08167e-11
0
0
-6.93889e-12
-3.46945e-11
-3.46945e-11
0
2.08167e-11
1.38778e-11
-6.93889e-12
-6.93889e-12
-2.77556e-11
0
1.38778e-11
-2.77556e-11
-2.77556e-11
0
0
-1.38778e-11
-6.93889e-12
0
2.77556e-11
2.77556e-11
0
-3.46945e-11
6.93889e-12
-3.46945e-11
0
-1.38778e-11
0
-4.16334e-11
0
-1.38778e-11
2.08167e-11
2.77556e-11
4.85723e-11
-3.46945e-11
0
-2.08167e-11
0
0
1.38778e-11
1.38778e-11
6.93889e-12
1.38778e-11
1.38778e-11
5.55112e-11
2.08167e-11
1.38778e-11
-1.38778e-11
0
6.245e-11
6.93889e-12
0
2.08167e-11
0
0
0
6.93889e-12
-6.93889e-12
-2.08167e-11
-3.46945e-11
1.38778e-11
2.77556e-11
6.93889e-12
1.38778e-11
6.93889e-12
-2.08167e-11
-6.93889e-12
-1.38778e-11
-6.93889e-12
0
2.70327e-05
7.54559e-05
0.000104547
0.000105347
8.3753e-05
5.47525e-05
3.03018e-05
1.45187e-05
6.13083e-06
2.31457e-06
7.905e-07
2.46587e-07
7.086e-08
1.89085e-08
4.73926e-09
1.10328e-09
2.498e-10
8.32667e-11
5.55112e-11
2.77556e-11
-2.08167e-11
-6.245e-11
-1.38778e-11
2.77556e-11
8.32667e-11
2.77556e-11
3.46945e-11
3.46945e-11
2.08167e-11
0
0
2.08167e-11
4.85723e-11
4.85723e-11
0
3.46945e-11
-1.38778e-11
6.93889e-12
6.93889e-12
-6.93889e-12
0
0
-2.08167e-11
4.85723e-11
4.85723e-11
2.08167e-11
4.85723e-11
6.93889e-12
3.46945e-11
0
4.16334e-11
1.38778e-11
0
-6.93889e-12
-1.38778e-11
1.38778e-11
1.38778e-11
-1.38778e-11
6.93889e-12
2.08167e-11
0
2.77556e-11
0
1.38778e-11
1.38778e-11
-6.93889e-12
-1.38778e-11
-6.93889e-12
1.38778e-11
2.08167e-11
-3.46945e-11
1.38778e-11
0
-2.77556e-11
0
0
-1.38778e-11
2.08167e-11
-6.245e-11
0
0
2.08167e-11
-3.46945e-11
-3.46945e-11
2.08167e-11
0
2.77556e-11
-3.46945e-11
-1.38778e-11
-4.85723e-11
-2.77556e-11
-6.245e-11
-4.16334e-11
-3.46945e-11
0
-3.46945e-11
0
0
0
-3.46945e-11
0.000143691
0.000394944
0.000535866
0.000529196
0.000413462
0.000266334
0.000145538
6.89586e-05
2.88282e-05
1.07837e-05
3.6513e-06
1.12987e-06
3.22076e-07
8.51749e-08
2.10457e-08
4.88498e-09
1.10328e-09
2.70617e-10
9.71445e-11
1.38778e-11
6.93889e-12
1.38778e-11
0
2.08167e-11
3.46945e-11
0
-2.77556e-11
1.38778e-11
0
0
-2.08167e-11
-2.08167e-11
0
0
-6.93889e-12
0
-1.38778e-11
0
1.38778e-11
-2.77556e-11
-6.93889e-12
-2.08167e-11
-1.38778e-11
-2.08167e-11
0
-3.46945e-11
2.08167e-11
0
-3.46945e-11
-2.77556e-11
-6.93889e-12
0
0
-2.77556e-11
1.38778e-11
0
0
-1.38778e-11
2.77556e-11
0
0
-1.38778e-11
-2.77556e-11
-3.46945e-11
6.93889e-12
0
-1.38778e-11
-2.77556e-11
-1.38778e-11
-1.38778e-11
6.93889e-12
6.93889e-12
-1.38778e-11
0
-6.245e-11
0
-2.08167e-11
1.38778e-11
2.77556e-11
2.77556e-11
-2.08167e-11
-3.46945e-11
-2.08167e-11
2.77556e-11
2.77556e-11
-2.77556e-11
0
6.93889e-12
1.38778e-11
-1.38778e-11
-2.08167e-11
-1.38778e-11
6.93889e-12
-2.08167e-11
0
2.08167e-11
6.93889e-12
-3.46945e-11
4.16334e-11
-6.93889e-12
0.000617476
0.00170491
0.00232393
0.00229919
0.00179479
0.00115294
0.000627545
0.000295968
0.000123107
4.58085e-05
1.54273e-05
4.74803e-06
1.34629e-06
3.54092e-07
8.68888e-08
2.00465e-08
4.39232e-09
9.22873e-10
1.8735e-10
4.85723e-11
6.93889e-11
6.93889e-11
0
-2.08167e-11
-9.02056e-11
6.93889e-12
-4.16334e-11
-1.38778e-11
-6.93889e-12
-1.38778e-11
0
-2.77556e-11
-5.55112e-11
-6.93889e-11
0
-4.16334e-11
0
-4.16334e-11
1.38778e-11
0
0
0
0
-2.77556e-11
-5.55112e-11
-3.46945e-11
-3.46945e-11
-6.93889e-12
-4.85723e-11
-6.93889e-12
-4.85723e-11
-2.77556e-11
-2.08167e-11
0
-1.38778e-11
-1.38778e-11
0
0
-2.77556e-11
-3.46945e-11
-1.38778e-11
-2.08167e-11
-3.46945e-11
-3.46945e-11
-2.08167e-11
0
0
1.38778e-11
3.46945e-11
-6.93889e-12
1.38778e-11
0
0
0
-1.38778e-11
-2.08167e-11
5.55112e-11
2.08167e-11
4.85723e-11
0
0
-1.38778e-11
2.08167e-11
3.46945e-11
0
-6.93889e-12
0
1.38778e-11
-1.38778e-11
1.38778e-11
1.38778e-11
0
1.38778e-11
0
2.77556e-11
1.38778e-11
0
-6.93889e-12
1.38778e-11
3.46945e-11
0.00239171
0.0066512
0.00913513
0.00907351
0.00708655
0.00454412
0.00246553
0.00115819
0.000479608
0.000177625
5.95316e-05
1.82325e-05
5.14448e-06
1.3466e-06
3.28973e-07
7.53841e-08
1.62856e-08
3.33067e-09
6.245e-10
1.31839e-10
4.85723e-11
-1.38778e-11
-2.77556e-11
-8.32667e-11
-9.02056e-11
-3.46945e-11
-2.77556e-11
-2.08167e-11
0
0
6.93889e-12
-3.46945e-11
-2.77556e-11
-4.16334e-11
0
-2.77556e-11
0
-4.85723e-11
-2.77556e-11
1.38778e-11
-3.46945e-11
-1.38778e-11
0
-4.16334e-11
-4.85723e-11
-4.16334e-11
-3.46945e-11
-2.77556e-11
-2.08167e-11
-1.38778e-11
-1.38778e-11
1.38778e-11
-3.46945e-11
1.38778e-11
1.38778e-11
0
0
1.38778e-11
1.38778e-11
0
1.38778e-11
-2.77556e-11
-6.93889e-12
6.93889e-12
-1.38778e-11
-2.77556e-11
0
2.08167e-11
2.08167e-11
-2.77556e-11
-5.55112e-11
0
-3.46945e-11
-6.93889e-12
-3.46945e-11
-1.38778e-11
2.77556e-11
1.38778e-11
0
-2.77556e-11
-1.38778e-11
3.46945e-11
-2.08167e-11
-2.77556e-11
-2.77556e-11
-2.08167e-11
-6.245e-11
-1.38778e-11
-2.08167e-11
0
-3.46945e-11
-1.38778e-11
-3.46945e-11
3.46945e-11
-2.77556e-11
-1.38778e-11
-6.93889e-12
2.08167e-11
-5.55112e-11
2.08167e-11
0.00826
0.0232141
0.0322363
0.0322084
0.0251942
0.0161363
0.00873128
0.00408679
0.00168545
0.000621515
0.000207374
6.32251e-05
1.77591e-05
4.62781e-06
1.12551e-06
2.56795e-07
5.52128e-08
1.11647e-08
2.16493e-09
4.3715e-10
4.16334e-11
1.38778e-11
0
-2.08167e-11
-1.38778e-11
-3.46945e-11
2.77556e-11
-2.08167e-11
-3.46945e-11
0
1.38778e-11
0
2.77556e-11
0
-3.46945e-11
0
0
0
-4.16334e-11
1.38778e-11
0
1.38778e-11
0
-2.08167e-11
1.38778e-11
-2.08167e-11
0
1.38778e-11
0
1.38778e-11
1.38778e-11
0
0
0
0
-2.08167e-11
0
0
0
-2.08167e-11
0
0
6.93889e-12
2.77556e-11
0
2.77556e-11
1.38778e-11
2.77556e-11
-2.77556e-11
-4.16334e-11
-2.08167e-11
1.38778e-11
-6.93889e-12
0
0
2.08167e-11
-2.77556e-11
-1.38778e-11
1.38778e-11
0
-2.77556e-11
1.38778e-11
0
0
1.38778e-11
0
-4.16334e-11
0
6.93889e-12
-1.38778e-11
-2.77556e-11
1.38778e-11
-1.38778e-11
-1.38778e-11
-6.93889e-12
1.38778e-11
6.93889e-12
1.38778e-11
-3.46945e-11
-1.38778e-11
0.0249592
0.0713258
0.100716
0.101516
0.0796369
0.0509806
0.0275223
0.0128406
0.00527593
0.00193777
0.000643902
0.000195502
5.46866e-05
1.41921e-05
3.43745e-06
7.81118e-07
1.67255e-07
3.38549e-08
6.50174e-09
1.14492e-09
1.94289e-10
5.55112e-11
2.08167e-11
2.08167e-11
2.08167e-11
2.77556e-11
0
6.93889e-12
2.08167e-11
-6.93889e-12
1.38778e-11
3.46945e-11
0
2.77556e-11
-3.46945e-11
-6.93889e-12
0
1.38778e-11
2.08167e-11
-1.38778e-11
6.93889e-12
3.46945e-11
-6.93889e-12
2.77556e-11
3.46945e-11
5.55112e-11
1.38778e-11
2.08167e-11
1.38778e-11
0
0
-2.08167e-11
2.08167e-11
-2.08167e-11
-2.08167e-11
-2.08167e-11
-1.38778e-11
-2.08167e-11
-2.08167e-11
-1.38778e-11
-2.08167e-11
-2.08167e-11
-6.93889e-12
-2.77556e-11
-6.93889e-12
0
-1.38778e-11
-3.46945e-11
-2.77556e-11
0
4.16334e-11
1.38778e-11
6.93889e-12
0
3.46945e-11
0
0
-2.08167e-11
-2.77556e-11
-6.93889e-12
2.08167e-11
0
1.38778e-11
0
0
2.08167e-11
4.16334e-11
-4.16334e-11
-2.08167e-11
0
3.46945e-11
-2.08167e-11
1.38778e-11
0
6.93889e-12
-1.38778e-11
1.38778e-11
0
6.93889e-12
1.38778e-11
0.0642365
0.18902
0.274267
0.280118
0.220768
0.141375
0.0761868
0.0354449
0.014515
0.00531201
0.00175861
0.000531956
0.000148248
3.83309e-05
9.25049e-06
2.09453e-06
4.46948e-07
9.02542e-08
1.72709e-08
3.08087e-09
5.20417e-10
4.85723e-11
0
2.08167e-11
2.77556e-11
6.93889e-12
-1.38778e-11
2.77556e-11
1.38778e-11
-3.46945e-11
-2.77556e-11
0
-1.38778e-11
-2.77556e-11
2.08167e-11
0
0
-2.77556e-11
4.85723e-11
-1.38778e-11
-6.93889e-12
-3.46945e-11
-2.77556e-11
2.77556e-11
-1.38778e-11
2.08167e-11
0
1.38778e-11
-1.38778e-11
-1.38778e-11
-1.38778e-11
-1.38778e-11
1.38778e-11
-1.38778e-11
0
6.93889e-12
-6.93889e-12
6.93889e-12
-1.38778e-11
2.77556e-11
-1.38778e-11
0
-2.77556e-11
-6.93889e-12
0
-1.38778e-11
-6.93889e-12
-4.85723e-11
-6.93889e-12
4.16334e-11
3.46945e-11
-1.38778e-11
0
0
2.08167e-11
-3.46945e-11
1.38778e-11
-2.08167e-11
-3.46945e-11
-5.55112e-11
2.08167e-11
-2.08167e-11
-2.77556e-11
0
-3.46945e-11
0
3.46945e-11
-1.38778e-11
-2.08167e-11
1.38778e-11
0
-2.77556e-11
-1.38778e-11
0
0
-6.93889e-12
-1.38778e-11
0
1.38778e-11
0
0.134492
0.420111
0.639947
0.666902
0.529266
0.339368
0.182668
0.0847865
0.0346218
0.0126313
0.00416841
0.00125685
0.000349147
8.99922e-05
2.16513e-05
4.88769e-06
1.03999e-06
2.09423e-07
4.00582e-08
7.32053e-09
1.29063e-09
2.35922e-10
6.93889e-11
4.85723e-11
2.77556e-11
0
1.38778e-11
6.93889e-12
-1.38778e-11
6.93889e-12
0
0
1.38778e-11
-1.38778e-11
3.46945e-11
6.93889e-12
-3.46945e-11
1.38778e-11
-2.77556e-11
1.38778e-11
2.08167e-11
0
1.38778e-11
6.93889e-12
2.08167e-11
-1.38778e-11
0
-1.38778e-11
2.08167e-11
2.08167e-11
1.38778e-11
1.38778e-11
0
1.38778e-11
6.93889e-12
2.77556e-11
0
1.38778e-11
1.38778e-11
-1.38778e-11
1.38778e-11
1.38778e-11
2.77556e-11
6.93889e-12
6.93889e-12
1.38778e-11
0
2.08167e-11
0
0
1.38778e-11
-1.38778e-11
1.38778e-11
6.93889e-12
0
1.38778e-11
0
0
1.38778e-11
6.93889e-12
1.38778e-11
0
1.38778e-11
2.77556e-11
0
0
-6.93889e-12
3.46945e-11
2.08167e-11
-1.38778e-11
-2.08167e-11
2.77556e-11
0
-1.38778e-11
0
6.93889e-12
0
6.93889e-12
1.38778e-11
-1.38778e-11
0.204696
0.748315
1.25878
1.35254
1.08366
0.696401
0.374632
0.173587
0.0707246
0.0257399
0.00847298
0.00254832
0.000706155
0.000181569
4.35806e-05
9.8156e-06
2.0839e-06
4.18734e-07
7.99569e-08
1.45647e-08
2.54657e-09
4.51028e-10
9.71445e-11
2.08167e-11
-2.08167e-11
0
6.93889e-12
1.38778e-11
1.38778e-11
2.77556e-11
-2.08167e-11
0
6.93889e-12
6.93889e-11
1.38778e-11
-6.93889e-12
-6.93889e-12
2.08167e-11
0
0
1.38778e-11
3.46945e-11
2.08167e-11
1.38778e-11
0
-6.93889e-12
0
0
0
2.77556e-11
0
0
-2.77556e-11
6.93889e-12
-6.93889e-12
2.08167e-11
2.08167e-11
-2.08167e-11
0
-2.08167e-11
0
2.08167e-11
6.93889e-12
-6.93889e-12
-6.93889e-12
0
0
4.85723e-11
6.93889e-12
0
-1.38778e-11
0
-2.08167e-11
0
-2.08167e-11
4.85723e-11
1.38778e-11
6.93889e-12
2.08167e-11
5.55112e-11
6.93889e-12
-1.38778e-11
1.38778e-11
0
2.08167e-11
4.16334e-11
2.08167e-11
1.38778e-11
3.46945e-11
-6.93889e-12
-2.08167e-11
0
-6.93889e-12
2.77556e-11
1.38778e-11
0
0
0
6.93889e-12
0
0.115848
0.463841
0.817366
0.889238
0.715083
0.459952
0.247402
0.114573
0.0466471
0.0169637
0.00557955
0.00167674
0.000464266
0.000119281
2.86087e-05
6.4388e-06
1.36602e-06
2.74288e-07
5.23193e-08
9.49241e-09
1.6237e-09
2.77556e-10
3.46945e-11
0
-6.93889e-12
0
0
1.38778e-11
0
-1.38778e-11
-2.08167e-11
0
0
3.46945e-11
0
-1.38778e-11
0
0
1.38778e-11
-1.38778e-11
0
0
0
1.38778e-11
-6.93889e-12
-1.38778e-11
0
2.77556e-11
-6.93889e-12
0
-1.38778e-11
-1.38778e-11
-6.93889e-12
0
-1.38778e-11
1.38778e-11
2.08167e-11
-1.38778e-11
-1.38778e-11
0
-1.38778e-11
1.38778e-11
0
-1.38778e-11
-1.38778e-11
-1.38778e-11
-1.38778e-11
1.38778e-11
1.38778e-11
0
-1.38778e-11
0
-2.08167e-11
0
-1.38778e-11
3.46945e-11
2.08167e-11
2.77556e-11
0
0
0
-3.46945e-11
-1.38778e-11
0
0
4.85723e-11
1.38778e-11
6.93889e-12
1.38778e-11
0
-2.08167e-11
-1.38778e-11
-2.08167e-11
6.93889e-12
-1.38778e-11
0
0
0
0
0
)
;

boundaryField
{
    top
    {
        type            calculated;
        value           uniform 0;
    }
    bottom
    {
        type            calculated;
        value           uniform 0;
    }
    left
    {
        type            calculated;
        value           nonuniform List<scalar> 
20
(
-0.469711
-0.640596
-0.233004
-0.0826237
-0.0265908
-0.00771267
-0.00202074
-0.000480878
-0.000103647
-1.48796e-05
2.70327e-05
0.000143691
0.000617476
0.00239171
0.00826
0.0249592
0.0642365
0.134492
0.204696
0.115848
)
;
    }
    right
    {
        type            calculated;
        value           nonuniform List<scalar> 
20
(
-6.93889e-12
-1.38778e-11
-1.38778e-11
0
-2.08167e-11
0
0
-1.38778e-11
3.46945e-11
0
-3.46945e-11
-6.93889e-12
3.46945e-11
2.08167e-11
-1.38778e-11
1.38778e-11
0
-1.38778e-11
0
0
)
;
    }
    frontAndBack
    {
        type            empty;
    }
}


// ************************************************************************* //
